# vtk DataFile Version 2.0
dg(2) output generated by Nextsim
ASCII
DATASET UNSTRUCTURED_GRID
FIELD FieldData 1
TIME 1 1 double
0
POINTS 40000 DOUBLE
0	0	0
0.01	0	0
0.01	0.01	0
0	0.01	0
0.01	0	0
0.02	0	0
0.02	0.01	0
0.01	0.01	0
0.02	0	0
0.03	0	0
0.03	0.01	0
0.02	0.01	0
0.03	0	0
0.04	0	0
0.04	0.01	0
0.03	0.01	0
0.04	0	0
0.05	0	0
0.05	0.01	0
0.04	0.01	0
0.05	0	0
0.06	0	0
0.06	0.01	0
0.05	0.01	0
0.06	0	0
0.07	0	0
0.07	0.01	0
0.06	0.01	0
0.07	0	0
0.08	0	0
0.08	0.01	0
0.07	0.01	0
0.08	0	0
0.09	0	0
0.09	0.01	0
0.08	0.01	0
0.09	0	0
0.1	0	0
0.1	0.01	0
0.09	0.01	0
0.1	0	0
0.11	0	0
0.11	0.01	0
0.1	0.01	0
0.11	0	0
0.12	0	0
0.12	0.01	0
0.11	0.01	0
0.12	0	0
0.13	0	0
0.13	0.01	0
0.12	0.01	0
0.13	0	0
0.14	0	0
0.14	0.01	0
0.13	0.01	0
0.14	0	0
0.15	0	0
0.15	0.01	0
0.14	0.01	0
0.15	0	0
0.16	0	0
0.16	0.01	0
0.15	0.01	0
0.16	0	0
0.17	0	0
0.17	0.01	0
0.16	0.01	0
0.17	0	0
0.18	0	0
0.18	0.01	0
0.17	0.01	0
0.18	0	0
0.19	0	0
0.19	0.01	0
0.18	0.01	0
0.19	0	0
0.2	0	0
0.2	0.01	0
0.19	0.01	0
0.2	0	0
0.21	0	0
0.21	0.01	0
0.2	0.01	0
0.21	0	0
0.22	0	0
0.22	0.01	0
0.21	0.01	0
0.22	0	0
0.23	0	0
0.23	0.01	0
0.22	0.01	0
0.23	0	0
0.24	0	0
0.24	0.01	0
0.23	0.01	0
0.24	0	0
0.25	0	0
0.25	0.01	0
0.24	0.01	0
0.25	0	0
0.26	0	0
0.26	0.01	0
0.25	0.01	0
0.26	0	0
0.27	0	0
0.27	0.01	0
0.26	0.01	0
0.27	0	0
0.28	0	0
0.28	0.01	0
0.27	0.01	0
0.28	0	0
0.29	0	0
0.29	0.01	0
0.28	0.01	0
0.29	0	0
0.3	0	0
0.3	0.01	0
0.29	0.01	0
0.3	0	0
0.31	0	0
0.31	0.01	0
0.3	0.01	0
0.31	0	0
0.32	0	0
0.32	0.01	0
0.31	0.01	0
0.32	0	0
0.33	0	0
0.33	0.01	0
0.32	0.01	0
0.33	0	0
0.34	0	0
0.34	0.01	0
0.33	0.01	0
0.34	0	0
0.35	0	0
0.35	0.01	0
0.34	0.01	0
0.35	0	0
0.36	0	0
0.36	0.01	0
0.35	0.01	0
0.36	0	0
0.37	0	0
0.37	0.01	0
0.36	0.01	0
0.37	0	0
0.38	0	0
0.38	0.01	0
0.37	0.01	0
0.38	0	0
0.39	0	0
0.39	0.01	0
0.38	0.01	0
0.39	0	0
0.4	0	0
0.4	0.01	0
0.39	0.01	0
0.4	0	0
0.41	0	0
0.41	0.01	0
0.4	0.01	0
0.41	0	0
0.42	0	0
0.42	0.01	0
0.41	0.01	0
0.42	0	0
0.43	0	0
0.43	0.01	0
0.42	0.01	0
0.43	0	0
0.44	0	0
0.44	0.01	0
0.43	0.01	0
0.44	0	0
0.45	0	0
0.45	0.01	0
0.44	0.01	0
0.45	0	0
0.46	0	0
0.46	0.01	0
0.45	0.01	0
0.46	0	0
0.47	0	0
0.47	0.01	0
0.46	0.01	0
0.47	0	0
0.48	0	0
0.48	0.01	0
0.47	0.01	0
0.48	0	0
0.49	0	0
0.49	0.01	0
0.48	0.01	0
0.49	0	0
0.5	0	0
0.5	0.01	0
0.49	0.01	0
0.5	0	0
0.51	0	0
0.51	0.01	0
0.5	0.01	0
0.51	0	0
0.52	0	0
0.52	0.01	0
0.51	0.01	0
0.52	0	0
0.53	0	0
0.53	0.01	0
0.52	0.01	0
0.53	0	0
0.54	0	0
0.54	0.01	0
0.53	0.01	0
0.54	0	0
0.55	0	0
0.55	0.01	0
0.54	0.01	0
0.55	0	0
0.56	0	0
0.56	0.01	0
0.55	0.01	0
0.56	0	0
0.57	0	0
0.57	0.01	0
0.56	0.01	0
0.57	0	0
0.58	0	0
0.58	0.01	0
0.57	0.01	0
0.58	0	0
0.59	0	0
0.59	0.01	0
0.58	0.01	0
0.59	0	0
0.6	0	0
0.6	0.01	0
0.59	0.01	0
0.6	0	0
0.61	0	0
0.61	0.01	0
0.6	0.01	0
0.61	0	0
0.62	0	0
0.62	0.01	0
0.61	0.01	0
0.62	0	0
0.63	0	0
0.63	0.01	0
0.62	0.01	0
0.63	0	0
0.64	0	0
0.64	0.01	0
0.63	0.01	0
0.64	0	0
0.65	0	0
0.65	0.01	0
0.64	0.01	0
0.65	0	0
0.66	0	0
0.66	0.01	0
0.65	0.01	0
0.66	0	0
0.67	0	0
0.67	0.01	0
0.66	0.01	0
0.67	0	0
0.68	0	0
0.68	0.01	0
0.67	0.01	0
0.68	0	0
0.69	0	0
0.69	0.01	0
0.68	0.01	0
0.69	0	0
0.7	0	0
0.7	0.01	0
0.69	0.01	0
0.7	0	0
0.71	0	0
0.71	0.01	0
0.7	0.01	0
0.71	0	0
0.72	0	0
0.72	0.01	0
0.71	0.01	0
0.72	0	0
0.73	0	0
0.73	0.01	0
0.72	0.01	0
0.73	0	0
0.74	0	0
0.74	0.01	0
0.73	0.01	0
0.74	0	0
0.75	0	0
0.75	0.01	0
0.74	0.01	0
0.75	0	0
0.76	0	0
0.76	0.01	0
0.75	0.01	0
0.76	0	0
0.77	0	0
0.77	0.01	0
0.76	0.01	0
0.77	0	0
0.78	0	0
0.78	0.01	0
0.77	0.01	0
0.78	0	0
0.79	0	0
0.79	0.01	0
0.78	0.01	0
0.79	0	0
0.8	0	0
0.8	0.01	0
0.79	0.01	0
0.8	0	0
0.81	0	0
0.81	0.01	0
0.8	0.01	0
0.81	0	0
0.82	0	0
0.82	0.01	0
0.81	0.01	0
0.82	0	0
0.83	0	0
0.83	0.01	0
0.82	0.01	0
0.83	0	0
0.84	0	0
0.84	0.01	0
0.83	0.01	0
0.84	0	0
0.85	0	0
0.85	0.01	0
0.84	0.01	0
0.85	0	0
0.86	0	0
0.86	0.01	0
0.85	0.01	0
0.86	0	0
0.87	0	0
0.87	0.01	0
0.86	0.01	0
0.87	0	0
0.88	0	0
0.88	0.01	0
0.87	0.01	0
0.88	0	0
0.89	0	0
0.89	0.01	0
0.88	0.01	0
0.89	0	0
0.9	0	0
0.9	0.01	0
0.89	0.01	0
0.9	0	0
0.91	0	0
0.91	0.01	0
0.9	0.01	0
0.91	0	0
0.92	0	0
0.92	0.01	0
0.91	0.01	0
0.92	0	0
0.93	0	0
0.93	0.01	0
0.92	0.01	0
0.93	0	0
0.94	0	0
0.94	0.01	0
0.93	0.01	0
0.94	0	0
0.95	0	0
0.95	0.01	0
0.94	0.01	0
0.95	0	0
0.96	0	0
0.96	0.01	0
0.95	0.01	0
0.96	0	0
0.97	0	0
0.97	0.01	0
0.96	0.01	0
0.97	0	0
0.98	0	0
0.98	0.01	0
0.97	0.01	0
0.98	0	0
0.99	0	0
0.99	0.01	0
0.98	0.01	0
0.99	0	0
1	0	0
1	0.01	0
0.99	0.01	0
0	0.01	0
0.01	0.01	0
0.01	0.02	0
0	0.02	0
0.01	0.01	0
0.02	0.01	0
0.02	0.02	0
0.01	0.02	0
0.02	0.01	0
0.03	0.01	0
0.03	0.02	0
0.02	0.02	0
0.03	0.01	0
0.04	0.01	0
0.04	0.02	0
0.03	0.02	0
0.04	0.01	0
0.05	0.01	0
0.05	0.02	0
0.04	0.02	0
0.05	0.01	0
0.06	0.01	0
0.06	0.02	0
0.05	0.02	0
0.06	0.01	0
0.07	0.01	0
0.07	0.02	0
0.06	0.02	0
0.07	0.01	0
0.08	0.01	0
0.08	0.02	0
0.07	0.02	0
0.08	0.01	0
0.09	0.01	0
0.09	0.02	0
0.08	0.02	0
0.09	0.01	0
0.1	0.01	0
0.1	0.02	0
0.09	0.02	0
0.1	0.01	0
0.11	0.01	0
0.11	0.02	0
0.1	0.02	0
0.11	0.01	0
0.12	0.01	0
0.12	0.02	0
0.11	0.02	0
0.12	0.01	0
0.13	0.01	0
0.13	0.02	0
0.12	0.02	0
0.13	0.01	0
0.14	0.01	0
0.14	0.02	0
0.13	0.02	0
0.14	0.01	0
0.15	0.01	0
0.15	0.02	0
0.14	0.02	0
0.15	0.01	0
0.16	0.01	0
0.16	0.02	0
0.15	0.02	0
0.16	0.01	0
0.17	0.01	0
0.17	0.02	0
0.16	0.02	0
0.17	0.01	0
0.18	0.01	0
0.18	0.02	0
0.17	0.02	0
0.18	0.01	0
0.19	0.01	0
0.19	0.02	0
0.18	0.02	0
0.19	0.01	0
0.2	0.01	0
0.2	0.02	0
0.19	0.02	0
0.2	0.01	0
0.21	0.01	0
0.21	0.02	0
0.2	0.02	0
0.21	0.01	0
0.22	0.01	0
0.22	0.02	0
0.21	0.02	0
0.22	0.01	0
0.23	0.01	0
0.23	0.02	0
0.22	0.02	0
0.23	0.01	0
0.24	0.01	0
0.24	0.02	0
0.23	0.02	0
0.24	0.01	0
0.25	0.01	0
0.25	0.02	0
0.24	0.02	0
0.25	0.01	0
0.26	0.01	0
0.26	0.02	0
0.25	0.02	0
0.26	0.01	0
0.27	0.01	0
0.27	0.02	0
0.26	0.02	0
0.27	0.01	0
0.28	0.01	0
0.28	0.02	0
0.27	0.02	0
0.28	0.01	0
0.29	0.01	0
0.29	0.02	0
0.28	0.02	0
0.29	0.01	0
0.3	0.01	0
0.3	0.02	0
0.29	0.02	0
0.3	0.01	0
0.31	0.01	0
0.31	0.02	0
0.3	0.02	0
0.31	0.01	0
0.32	0.01	0
0.32	0.02	0
0.31	0.02	0
0.32	0.01	0
0.33	0.01	0
0.33	0.02	0
0.32	0.02	0
0.33	0.01	0
0.34	0.01	0
0.34	0.02	0
0.33	0.02	0
0.34	0.01	0
0.35	0.01	0
0.35	0.02	0
0.34	0.02	0
0.35	0.01	0
0.36	0.01	0
0.36	0.02	0
0.35	0.02	0
0.36	0.01	0
0.37	0.01	0
0.37	0.02	0
0.36	0.02	0
0.37	0.01	0
0.38	0.01	0
0.38	0.02	0
0.37	0.02	0
0.38	0.01	0
0.39	0.01	0
0.39	0.02	0
0.38	0.02	0
0.39	0.01	0
0.4	0.01	0
0.4	0.02	0
0.39	0.02	0
0.4	0.01	0
0.41	0.01	0
0.41	0.02	0
0.4	0.02	0
0.41	0.01	0
0.42	0.01	0
0.42	0.02	0
0.41	0.02	0
0.42	0.01	0
0.43	0.01	0
0.43	0.02	0
0.42	0.02	0
0.43	0.01	0
0.44	0.01	0
0.44	0.02	0
0.43	0.02	0
0.44	0.01	0
0.45	0.01	0
0.45	0.02	0
0.44	0.02	0
0.45	0.01	0
0.46	0.01	0
0.46	0.02	0
0.45	0.02	0
0.46	0.01	0
0.47	0.01	0
0.47	0.02	0
0.46	0.02	0
0.47	0.01	0
0.48	0.01	0
0.48	0.02	0
0.47	0.02	0
0.48	0.01	0
0.49	0.01	0
0.49	0.02	0
0.48	0.02	0
0.49	0.01	0
0.5	0.01	0
0.5	0.02	0
0.49	0.02	0
0.5	0.01	0
0.51	0.01	0
0.51	0.02	0
0.5	0.02	0
0.51	0.01	0
0.52	0.01	0
0.52	0.02	0
0.51	0.02	0
0.52	0.01	0
0.53	0.01	0
0.53	0.02	0
0.52	0.02	0
0.53	0.01	0
0.54	0.01	0
0.54	0.02	0
0.53	0.02	0
0.54	0.01	0
0.55	0.01	0
0.55	0.02	0
0.54	0.02	0
0.55	0.01	0
0.56	0.01	0
0.56	0.02	0
0.55	0.02	0
0.56	0.01	0
0.57	0.01	0
0.57	0.02	0
0.56	0.02	0
0.57	0.01	0
0.58	0.01	0
0.58	0.02	0
0.57	0.02	0
0.58	0.01	0
0.59	0.01	0
0.59	0.02	0
0.58	0.02	0
0.59	0.01	0
0.6	0.01	0
0.6	0.02	0
0.59	0.02	0
0.6	0.01	0
0.61	0.01	0
0.61	0.02	0
0.6	0.02	0
0.61	0.01	0
0.62	0.01	0
0.62	0.02	0
0.61	0.02	0
0.62	0.01	0
0.63	0.01	0
0.63	0.02	0
0.62	0.02	0
0.63	0.01	0
0.64	0.01	0
0.64	0.02	0
0.63	0.02	0
0.64	0.01	0
0.65	0.01	0
0.65	0.02	0
0.64	0.02	0
0.65	0.01	0
0.66	0.01	0
0.66	0.02	0
0.65	0.02	0
0.66	0.01	0
0.67	0.01	0
0.67	0.02	0
0.66	0.02	0
0.67	0.01	0
0.68	0.01	0
0.68	0.02	0
0.67	0.02	0
0.68	0.01	0
0.69	0.01	0
0.69	0.02	0
0.68	0.02	0
0.69	0.01	0
0.7	0.01	0
0.7	0.02	0
0.69	0.02	0
0.7	0.01	0
0.71	0.01	0
0.71	0.02	0
0.7	0.02	0
0.71	0.01	0
0.72	0.01	0
0.72	0.02	0
0.71	0.02	0
0.72	0.01	0
0.73	0.01	0
0.73	0.02	0
0.72	0.02	0
0.73	0.01	0
0.74	0.01	0
0.74	0.02	0
0.73	0.02	0
0.74	0.01	0
0.75	0.01	0
0.75	0.02	0
0.74	0.02	0
0.75	0.01	0
0.76	0.01	0
0.76	0.02	0
0.75	0.02	0
0.76	0.01	0
0.77	0.01	0
0.77	0.02	0
0.76	0.02	0
0.77	0.01	0
0.78	0.01	0
0.78	0.02	0
0.77	0.02	0
0.78	0.01	0
0.79	0.01	0
0.79	0.02	0
0.78	0.02	0
0.79	0.01	0
0.8	0.01	0
0.8	0.02	0
0.79	0.02	0
0.8	0.01	0
0.81	0.01	0
0.81	0.02	0
0.8	0.02	0
0.81	0.01	0
0.82	0.01	0
0.82	0.02	0
0.81	0.02	0
0.82	0.01	0
0.83	0.01	0
0.83	0.02	0
0.82	0.02	0
0.83	0.01	0
0.84	0.01	0
0.84	0.02	0
0.83	0.02	0
0.84	0.01	0
0.85	0.01	0
0.85	0.02	0
0.84	0.02	0
0.85	0.01	0
0.86	0.01	0
0.86	0.02	0
0.85	0.02	0
0.86	0.01	0
0.87	0.01	0
0.87	0.02	0
0.86	0.02	0
0.87	0.01	0
0.88	0.01	0
0.88	0.02	0
0.87	0.02	0
0.88	0.01	0
0.89	0.01	0
0.89	0.02	0
0.88	0.02	0
0.89	0.01	0
0.9	0.01	0
0.9	0.02	0
0.89	0.02	0
0.9	0.01	0
0.91	0.01	0
0.91	0.02	0
0.9	0.02	0
0.91	0.01	0
0.92	0.01	0
0.92	0.02	0
0.91	0.02	0
0.92	0.01	0
0.93	0.01	0
0.93	0.02	0
0.92	0.02	0
0.93	0.01	0
0.94	0.01	0
0.94	0.02	0
0.93	0.02	0
0.94	0.01	0
0.95	0.01	0
0.95	0.02	0
0.94	0.02	0
0.95	0.01	0
0.96	0.01	0
0.96	0.02	0
0.95	0.02	0
0.96	0.01	0
0.97	0.01	0
0.97	0.02	0
0.96	0.02	0
0.97	0.01	0
0.98	0.01	0
0.98	0.02	0
0.97	0.02	0
0.98	0.01	0
0.99	0.01	0
0.99	0.02	0
0.98	0.02	0
0.99	0.01	0
1	0.01	0
1	0.02	0
0.99	0.02	0
0	0.02	0
0.01	0.02	0
0.01	0.03	0
0	0.03	0
0.01	0.02	0
0.02	0.02	0
0.02	0.03	0
0.01	0.03	0
0.02	0.02	0
0.03	0.02	0
0.03	0.03	0
0.02	0.03	0
0.03	0.02	0
0.04	0.02	0
0.04	0.03	0
0.03	0.03	0
0.04	0.02	0
0.05	0.02	0
0.05	0.03	0
0.04	0.03	0
0.05	0.02	0
0.06	0.02	0
0.06	0.03	0
0.05	0.03	0
0.06	0.02	0
0.07	0.02	0
0.07	0.03	0
0.06	0.03	0
0.07	0.02	0
0.08	0.02	0
0.08	0.03	0
0.07	0.03	0
0.08	0.02	0
0.09	0.02	0
0.09	0.03	0
0.08	0.03	0
0.09	0.02	0
0.1	0.02	0
0.1	0.03	0
0.09	0.03	0
0.1	0.02	0
0.11	0.02	0
0.11	0.03	0
0.1	0.03	0
0.11	0.02	0
0.12	0.02	0
0.12	0.03	0
0.11	0.03	0
0.12	0.02	0
0.13	0.02	0
0.13	0.03	0
0.12	0.03	0
0.13	0.02	0
0.14	0.02	0
0.14	0.03	0
0.13	0.03	0
0.14	0.02	0
0.15	0.02	0
0.15	0.03	0
0.14	0.03	0
0.15	0.02	0
0.16	0.02	0
0.16	0.03	0
0.15	0.03	0
0.16	0.02	0
0.17	0.02	0
0.17	0.03	0
0.16	0.03	0
0.17	0.02	0
0.18	0.02	0
0.18	0.03	0
0.17	0.03	0
0.18	0.02	0
0.19	0.02	0
0.19	0.03	0
0.18	0.03	0
0.19	0.02	0
0.2	0.02	0
0.2	0.03	0
[...]
POINT_DATA 40000
SCALARS dg2 DOUBLE 
LOOKUP_TABLE default
3.49233e-84
3.49233e-84
3.49233e-84
3.49233e-84
5.0068e-83
5.0068e-83
5.0068e-83
5.0068e-83
7.20148e-82
7.20148e-82
7.20148e-82
7.20148e-82
1.00149e-80
1.00149e-80
1.00149e-80
1.00149e-80
1.34562e-79
1.34562e-79
1.34562e-79
1.34562e-79
1.74568e-78
1.74568e-78
1.74568e-78
1.74568e-78
2.18528e-77
2.18528e-77
2.18528e-77
2.18528e-77
2.63822e-76
2.63822e-76
2.63822e-76
2.63822e-76
3.07019e-75
3.07019e-75
3.07019e-75
3.07019e-75
3.44255e-74
3.44255e-74
3.44255e-74
3.44255e-74
3.71788e-73
3.71788e-73
3.71788e-73
3.71788e-73
3.86604e-72
3.86604e-72
3.86604e-72
3.86604e-72
3.86964e-71
3.86964e-71
3.86964e-71
3.86964e-71
3.72736e-70
3.72736e-70
3.72736e-70
3.72736e-70
3.45436e-69
3.45436e-69
3.45436e-69
3.45436e-69
3.07957e-68
3.07957e-68
3.07957e-68
3.07957e-68
2.64061e-67
2.64061e-67
2.64061e-67
2.64061e-67
2.17747e-66
2.17747e-66
2.17747e-66
2.17747e-66
1.72657e-65
1.72657e-65
1.72657e-65
1.72657e-65
1.31631e-64
1.31631e-64
1.31631e-64
1.31631e-64
9.64802e-64
9.64802e-64
9.64802e-64
9.64802e-64
6.7982e-63
6.7982e-63
6.7982e-63
6.7982e-63
4.60468e-62
4.60468e-62
4.60468e-62
4.60468e-62
2.998e-61
2.998e-61
2.998e-61
2.998e-61
1.87617e-60
1.87617e-60
1.87617e-60
1.87617e-60
1.1285e-59
1.1285e-59
1.1285e-59
1.1285e-59
6.52389e-59
6.52389e-59
6.52389e-59
6.52389e-59
3.62473e-58
3.62473e-58
3.62473e-58
3.62473e-58
1.93552e-57
1.93552e-57
1.93552e-57
1.93552e-57
9.93259e-57
9.93259e-57
9.93259e-57
9.93259e-57
4.89849e-56
4.89849e-56
4.89849e-56
4.89849e-56
2.32162e-55
2.32162e-55
2.32162e-55
2.32162e-55
1.0574e-54
1.0574e-54
1.0574e-54
1.0574e-54
4.62815e-54
4.62815e-54
4.62815e-54
4.62815e-54
1.94664e-53
1.94664e-53
1.94664e-53
1.94664e-53
7.86815e-53
7.86815e-53
7.86815e-53
7.86815e-53
3.05607e-52
3.05607e-52
3.05607e-52
3.05607e-52
1.14066e-51
1.14066e-51
1.14066e-51
1.14066e-51
4.09115e-51
4.09115e-51
4.09115e-51
4.09115e-51
1.41004e-50
1.41004e-50
1.41004e-50
1.41004e-50
4.66996e-50
4.66996e-50
4.66996e-50
4.66996e-50
1.48623e-49
1.48623e-49
1.48623e-49
1.48623e-49
4.54518e-49
4.54518e-49
4.54518e-49
4.54518e-49
1.33569e-48
1.33569e-48
1.33569e-48
1.33569e-48
3.77178e-48
3.77178e-48
3.77178e-48
3.77178e-48
1.02347e-47
1.02347e-47
1.02347e-47
1.02347e-47
2.66866e-47
2.66866e-47
2.66866e-47
2.66866e-47
6.6865e-47
6.6865e-47
6.6865e-47
6.6865e-47
1.60997e-46
1.60997e-46
1.60997e-46
1.60997e-46
3.72666e-46
3.72666e-46
3.72666e-46
3.72666e-46
8.30518e-46
8.30518e-46
8.30518e-46
8.30518e-46
1.78144e-45
1.78144e-45
1.78144e-45
1.78144e-45
3.67194e-45
3.67194e-45
3.67194e-45
3.67194e-45
7.27337e-45
7.27337e-45
7.27337e-45
7.27337e-45
1.38453e-44
1.38453e-44
1.38453e-44
1.38453e-44
2.53282e-44
2.53282e-44
2.53282e-44
2.53282e-44
4.453e-44
4.453e-44
4.453e-44
4.453e-44
7.52411e-44
7.52411e-44
7.52411e-44
7.52411e-44
1.22185e-43
1.22185e-43
1.22185e-43
1.22185e-43
1.90701e-43
1.90701e-43
1.90701e-43
1.90701e-43
2.86065e-43
2.86065e-43
2.86065e-43
2.86065e-43
4.12437e-43
4.12437e-43
4.12437e-43
4.12437e-43
5.7153e-43
5.7153e-43
5.7153e-43
5.7153e-43
7.61224e-43
7.61224e-43
7.61224e-43
7.61224e-43
9.74504e-43
9.74504e-43
9.74504e-43
9.74504e-43
1.1991e-42
1.1991e-42
1.1991e-42
1.1991e-42
1.41818e-42
1.41818e-42
1.41818e-42
1.41818e-42
1.61219e-42
1.61219e-42
1.61219e-42
1.61219e-42
1.76161e-42
1.76161e-42
1.76161e-42
1.76161e-42
1.85018e-42
1.85018e-42
1.85018e-42
1.85018e-42
1.86781e-42
1.86781e-42
1.86781e-42
1.86781e-42
1.81244e-42
1.81244e-42
1.81244e-42
1.81244e-42
1.69047e-42
1.69047e-42
1.69047e-42
1.69047e-42
1.51554e-42
1.51554e-42
1.51554e-42
1.51554e-42
1.306e-42
1.306e-42
1.306e-42
1.306e-42
1.08176e-42
1.08176e-42
1.08176e-42
1.08176e-42
8.61254e-43
8.61254e-43
8.61254e-43
8.61254e-43
6.59087e-43
6.59087e-43
6.59087e-43
6.59087e-43
4.84801e-43
4.84801e-43
4.84801e-43
4.84801e-43
3.42762e-43
3.42762e-43
3.42762e-43
3.42762e-43
2.3293e-43
2.3293e-43
2.3293e-43
2.3293e-43
1.52146e-43
1.52146e-43
1.52146e-43
1.52146e-43
9.55206e-44
9.55206e-44
9.55206e-44
9.55206e-44
5.76407e-44
5.76407e-44
5.76407e-44
5.76407e-44
3.34314e-44
3.34314e-44
3.34314e-44
3.34314e-44
1.86367e-44
1.86367e-44
1.86367e-44
1.86367e-44
9.9855e-45
9.9855e-45
9.9855e-45
9.9855e-45
5.14224e-45
5.14224e-45
5.14224e-45
5.14224e-45
2.54515e-45
2.54515e-45
2.54515e-45
2.54515e-45
1.21073e-45
1.21073e-45
1.21073e-45
1.21073e-45
5.53542e-46
5.53542e-46
5.53542e-46
5.53542e-46
2.43231e-46
2.43231e-46
2.43231e-46
2.43231e-46
1.02718e-46
1.02718e-46
1.02718e-46
1.02718e-46
4.16898e-47
4.16898e-47
4.16898e-47
4.16898e-47
1.62616e-47
1.62616e-47
1.62616e-47
1.62616e-47
6.09597e-48
6.09597e-48
6.09597e-48
6.09597e-48
2.19615e-48
2.19615e-48
2.19615e-48
2.19615e-48
7.60299e-49
7.60299e-49
7.60299e-49
7.60299e-49
2.51972e-49
2.51972e-49
2.51972e-49
2.51972e-49
7.83392e-50
7.83392e-50
7.83392e-50
7.83392e-50
5.47338e-83
5.47338e-83
5.47338e-83
5.47338e-83
1.22509e-81
3.18541e-81
5.25226e-81
1.18569e-81
1.69914e-80
4.28156e-80
7.42286e-80
1.66837e-80
2.27834e-79
5.55907e-79
1.01464e-78
2.27313e-79
2.95216e-78
6.97019e-78
1.34061e-77
2.99732e-78
3.69475e-77
8.43727e-77
1.71113e-76
3.82274e-77
4.46436e-76
9.85695e-76
2.10864e-75
4.71316e-76
5.20562e-75
1.11105e-74
2.50745e-74
5.61456e-75
5.85522e-74
1.20793e-73
2.87576e-73
6.45902e-74
6.35046e-73
1.26631e-72
3.17956e-72
7.17233e-73
6.63896e-72
1.27968e-71
3.38764e-71
7.68439e-72
6.68783e-71
1.24625e-70
3.47683e-70
7.94039e-71
6.48977e-70
1.16934e-69
3.43623e-69
7.91043e-70
6.06474e-69
1.05682e-68
3.26941e-68
7.59528e-69
5.45665e-68
9.19797e-68
2.99387e-67
7.02662e-68
4.72578e-67
7.70762e-67
2.638e-66
6.26174e-67
3.93882e-66
6.21735e-66
2.23621e-65
5.37387e-66
3.15883e-65
4.82696e-65
1.82334e-64
4.44051e-65
2.43716e-64
3.60627e-64
1.42981e-63
3.53225e-64
1.80873e-63
2.59239e-63
1.07816e-62
2.7044e-63
1.29105e-62
1.79287e-62
7.817e-62
1.99262e-62
8.86209e-62
1.19278e-61
5.44879e-61
1.41273e-61
5.84941e-61
7.63299e-61
3.65113e-60
9.63644e-61
3.71219e-60
4.69808e-60
2.35173e-59
6.32344e-60
2.26492e-59
2.78106e-59
1.45598e-58
3.99141e-59
1.32846e-58
1.58323e-58
8.66366e-58
2.42324e-58
7.49015e-58
8.66771e-58
4.95458e-57
1.41491e-57
4.05931e-57
4.56333e-57
2.72303e-56
7.94491e-57
2.11452e-56
2.31031e-56
1.4382e-55
4.28993e-56
1.05864e-55
1.12478e-55
7.29953e-55
2.22733e-55
5.09384e-55
5.26593e-55
3.56013e-54
1.1119e-54
2.35553e-54
2.37083e-54
1.66848e-53
5.33671e-54
1.0468e-53
1.02648e-53
7.51361e-53
2.46254e-53
4.47052e-53
4.27409e-53
3.25119e-52
1.09239e-52
1.8347e-52
1.71157e-52
1.35174e-51
4.65839e-52
7.23561e-52
6.59208e-52
5.40004e-51
1.9096e-51
2.74209e-51
2.44203e-51
2.07274e-50
7.52453e-51
9.98571e-51
8.70177e-51
7.64424e-50
2.84992e-50
3.49433e-50
2.98276e-50
2.70869e-49
1.0375e-49
1.17499e-49
9.83593e-50
9.2218e-49
3.63025e-49
3.79655e-49
3.12054e-49
3.01649e-48
1.22084e-48
1.17877e-48
9.5257e-49
9.4801e-48
3.94594e-48
3.51682e-48
2.79801e-48
2.86252e-47
1.22573e-47
1.00823e-47
7.90906e-48
8.30433e-47
3.6592e-47
2.77753e-47
2.15158e-47
2.31462e-46
1.04982e-46
7.3528e-47
5.63356e-47
6.19833e-46
2.89446e-46
1.87045e-46
1.41987e-46
1.59473e-45
7.66906e-46
4.57283e-46
3.44505e-46
3.94209e-45
1.95267e-45
1.07421e-45
8.07261e-46
9.36237e-45
4.77868e-45
2.44327e-45
1.82272e-45
2.14082e-44
1.12372e-44
5.38655e-45
4.06181e-45
4.7218e-44
2.56633e-44
1.14368e-44
8.92348e-45
1.00282e-43
5.68653e-44
2.33576e-44
1.87983e-44
2.04689e-43
1.20909e-43
4.58927e-44
3.79867e-44
4.01559e-43
2.46727e-43
8.67561e-44
7.3656e-44
7.5721e-43
4.83273e-43
1.57813e-43
1.37079e-43
1.37253e-42
9.08748e-43
2.76253e-43
2.44924e-43
2.3916e-42
1.64068e-42
4.65398e-43
4.20225e-43
4.00628e-42
2.84431e-42
7.54604e-43
6.92486e-43
6.45211e-42
4.73529e-42
1.17762e-42
1.09622e-42
9.99057e-42
7.57128e-42
1.76887e-42
1.66728e-42
1.48739e-41
1.16273e-41
2.55736e-42
2.43674e-42
2.12924e-41
1.71514e-41
3.55871e-42
3.42259e-42
2.93092e-41
2.43031e-41
4.76638e-42
4.62053e-42
3.87952e-41
3.30814e-41
6.14427e-42
5.99604e-42
4.93808e-41
4.32602e-41
7.62287e-42
7.48014e-42
6.04444e-41
5.43487e-41
9.10151e-42
8.97139e-42
7.11513e-41
6.55998e-41
1.04576e-41
1.03452e-41
8.05461e-41
7.60745e-41
1.15623e-41
1.14703e-41
8.76899e-41
8.47639e-41
1.23006e-41
1.22286e-41
9.18125e-41
9.07456e-41
1.25906e-41
1.25361e-41
9.24497e-41
9.33449e-41
1.23986e-41
1.23577e-41
8.95287e-41
9.22596e-41
1.17455e-41
1.17142e-41
8.33821e-41
8.76178e-41
1.07031e-41
1.06778e-41
7.46856e-41
7.99534e-41
9.38126e-42
9.35936e-42
6.43355e-41
7.01048e-41
7.9084e-42
7.88866e-42
5.32982e-41
5.90643e-41
6.41154e-42
6.39358e-42
4.24635e-41
4.78157e-41
4.99864e-42
4.98266e-42
3.25354e-41
3.7195e-41
3.74738e-42
3.73372e-42
2.39731e-41
2.78013e-41
2.70123e-42
2.69014e-42
1.69869e-41
1.99669e-41
1.87209e-42
1.86358e-42
1.15748e-41
1.37791e-41
1.24737e-42
1.2412e-42
7.58432e-42
9.13679e-42
7.99001e-43
7.94781e-43
4.77869e-42
5.82138e-42
4.9199e-43
4.89265e-43
2.89521e-42
3.56382e-42
2.91207e-43
2.89546e-43
1.68663e-42
2.09633e-42
1.65677e-43
1.64722e-43
9.44738e-43
1.18483e-42
9.05983e-44
9.00798e-44
5.08797e-43
6.43427e-43
4.76165e-44
4.73513e-44
2.63454e-43
3.35729e-43
2.40523e-44
2.39248e-44
1.31154e-43
1.68314e-43
1.16763e-44
1.16188e-44
6.27705e-44
8.10754e-44
5.44734e-45
5.4232e-45
2.88813e-44
3.75227e-44
2.44222e-45
2.43286e-45
1.27747e-44
1.66852e-44
1.05219e-45
1.04889e-45
5.4318e-45
7.12846e-45
4.35609e-46
4.34597e-46
2.22014e-45
2.92608e-45
1.73296e-46
1.73049e-46
8.72268e-46
1.15398e-45
6.62455e-47
6.62167e-47
3.2941e-46
4.37253e-46
2.43326e-47
2.43481e-47
1.19571e-46
1.59177e-46
8.58416e-48
8.59774e-48
4.1707e-47
5.56689e-47
2.86634e-48
2.84174e-48
1.38463e-47
1.86377e-47
1.11987e-48
1.11987e-48
1.11987e-48
1.11987e-48
8.12882e-82
8.12882e-82
8.12882e-82
8.12882e-82
1.78232e-80
4.65912e-80
7.74501e-80
1.72584e-80
2.47501e-79
6.2751e-79
1.0964e-78
2.43151e-79
3.32234e-78
8.16291e-78
1.50084e-77
3.31671e-78
4.30915e-77
1.02531e-76
1.98547e-76
4.37786e-77
5.39785e-76
1.24317e-75
2.53691e-75
5.58863e-76
6.5274e-75
1.45459e-74
3.12909e-74
6.89613e-75
7.61667e-74
1.64192e-73
3.72371e-73
8.22124e-74
8.57275e-73
1.78747e-72
4.27339e-72
9.46429e-73
9.30339e-72
1.87619e-71
4.72735e-71
1.05162e-71
9.7314e-71
1.8982e-70
5.03894e-70
1.12737e-70
9.80805e-70
1.85064e-69
5.17348e-69
1.16557e-69
9.52212e-69
1.73822e-68
5.11461e-68
1.16179e-68
8.90251e-68
1.57251e-67
4.86751e-67
1.11606e-67
8.01331e-67
1.3699e-66
4.45818e-66
1.033e-66
6.94283e-66
1.14896e-65
3.92891e-65
9.20978e-66
5.78896e-65
9.27617e-65
3.33094e-64
7.90745e-65
4.64436e-64
7.20782e-64
2.71625e-63
6.5369e-64
3.58462e-63
5.3895e-63
2.13019e-62
5.20206e-63
2.66128e-62
3.87745e-62
1.60641e-61
3.98451e-62
1.90026e-61
2.68378e-61
1.16476e-60
2.93701e-61
1.30484e-60
1.78693e-60
8.11922e-60
2.08311e-60
8.61554e-60
1.14444e-59
5.44072e-59
1.42147e-59
5.4695e-59
7.04971e-59
3.50453e-58
9.33127e-59
3.33824e-58
4.17654e-58
2.16973e-57
5.89217e-58
1.95866e-57
2.37963e-57
1.2911e-56
3.57851e-57
1.10471e-56
1.30387e-56
7.38363e-56
2.09021e-56
5.989e-56
6.87038e-56
4.05806e-55
1.17409e-55
3.12076e-55
3.48131e-55
2.14333e-54
6.34176e-55
1.56295e-54
1.69636e-54
1.08784e-53
3.29373e-54
7.523e-54
7.94896e-54
5.30564e-53
1.64479e-53
3.48004e-53
3.58199e-53
2.48652e-52
7.89685e-53
1.54708e-52
1.55228e-52
1.11975e-51
3.64499e-52
6.60943e-52
6.46931e-52
4.84523e-51
1.61741e-51
2.7135e-51
2.59303e-51
2.01449e-50
6.89928e-51
1.07054e-50
9.99621e-51
8.04762e-50
2.82899e-50
4.05859e-50
3.7065e-50
3.08898e-49
1.11503e-49
1.47858e-49
1.32196e-49
1.13921e-48
4.22432e-49
5.17614e-49
4.53548e-49
4.03669e-48
1.53824e-48
1.74124e-48
1.49695e-48
1.3743e-47
5.38368e-48
5.62862e-48
4.75338e-48
4.49537e-47
1.81096e-47
1.74838e-47
1.45224e-47
1.41278e-46
5.85463e-47
5.21869e-47
4.26921e-47
4.26589e-46
1.81904e-46
1.49686e-46
1.20771e-46
1.23756e-45
5.43161e-46
4.12574e-46
3.28789e-46
3.44937e-45
1.55865e-45
1.09276e-45
8.61476e-46
9.23704e-45
4.29824e-45
2.78135e-45
2.17262e-45
2.37653e-44
1.13907e-44
6.80363e-45
5.27443e-45
5.87464e-44
2.90083e-44
1.5992e-44
1.2361e-44
1.39521e-43
7.10028e-44
3.63774e-44
2.7908e-44
3.1898e-43
1.66992e-43
8.01487e-44
6.20536e-44
7.03235e-43
3.81207e-43
1.70012e-43
1.35757e-43
1.49265e-42
8.43844e-43
3.4686e-43
2.84887e-43
3.04477e-42
1.79249e-42
6.80731e-43
5.73624e-43
5.96919e-42
3.65437e-42
1.28527e-42
1.10851e-42
1.12478e-41
7.15143e-42
2.33484e-42
2.05641e-42
2.0372e-41
1.34355e-41
4.0813e-42
3.66298e-42
3.54682e-41
2.4235e-41
6.86516e-42
6.26602e-42
5.93615e-41
4.19764e-41
1.11132e-41
1.02958e-41
9.55102e-41
6.98199e-41
1.73133e-41
1.6252e-41
1.47739e-40
1.11532e-40
2.59589e-41
2.46485e-41
2.19712e-40
1.71118e-40
3.74598e-41
3.5923e-41
3.14158e-40
2.52171e-40
5.20256e-41
5.03152e-41
4.31905e-40
3.56962e-40
6.95403e-41
6.77356e-41
5.70938e-40
4.85399e-40
8.9457e-41
8.76526e-41
7.2571e-40
6.34079e-40
1.10748e-40
1.09038e-40
8.86995e-40
7.95739e-40
1.31944e-40
1.30403e-40
1.04249e-39
9.59392e-40
1.51268e-40
1.49941e-40
1.17822e-39
1.1113e-39
1.66874e-40
1.65766e-40
1.28052e-39
1.23676e-39
1.77129e-40
1.76212e-40
1.33832e-39
1.32242e-39
1.80893e-40
1.80115e-40
1.34509e-39
1.35859e-39
1.77728e-40
1.77031e-40
1.30005e-39
1.34106e-39
1.67981e-40
1.67318e-40
1.20835e-39
1.2719e-39
1.52725e-40
1.52066e-40
1.08006e-39
1.15907e-39
1.33559e-40
1.32898e-40
9.28375e-40
1.01488e-39
1.12336e-40
1.11687e-40
7.67391e-40
8.53844e-40
9.08689e-41
9.02561e-41
6.09992e-40
6.90234e-40
7.06866e-41
7.0135e-41
4.66276e-40
5.36129e-40
5.28756e-41
5.24047e-41
3.42741e-40
4.00127e-40
3.80314e-41
3.76505e-41
2.42263e-40
2.86933e-40
2.6301e-41
2.60092e-41
1.64664e-40
1.97705e-40
1.74872e-41
1.72752e-41
1.0762e-40
1.3089e-40
1.11779e-41
1.10319e-41
6.76337e-41
8.32621e-41
6.86872e-42
6.77313e-42
4.08691e-41
5.08904e-41
4.05733e-42
3.99787e-42
2.37455e-41
2.98862e-41
2.30375e-42
2.26857e-42
1.32651e-41
1.68635e-41
1.25731e-42
1.2375e-42
7.12476e-42
9.14254e-42
6.59542e-43
6.48919e-43
3.67917e-42
4.76238e-42
3.32522e-43
3.27096e-43
1.82658e-42
2.38351e-42
1.61125e-43
1.58483e-43
8.7181e-43
1.14615e-42
7.5033e-44
7.38076e-44
4.00027e-43
5.2954e-43
3.35798e-44
3.3038e-44
1.76453e-43
2.35061e-43
1.44419e-44
1.42137e-44
7.48212e-44
1.00251e-43
5.96878e-45
5.87716e-45
3.04978e-44
4.10785e-44
2.37054e-45
2.33552e-45
1.19494e-44
1.61719e-44
9.04692e-46
8.91955e-46
4.50032e-45
6.11677e-45
3.31768e-46
3.27361e-46
1.62911e-45
2.22278e-45
1.16859e-46
1.15387e-46
5.66702e-46
7.75983e-46
3.89608e-47
3.80332e-47
1.87625e-46
2.59371e-46
1.60674e-47
1.60674e-47
1.60674e-47
1.60674e-47
1.15972e-80
1.15972e-80
1.15972e-80
1.15972e-80
2.4884e-79
6.54215e-79
1.09705e-78
2.41152e-79
3.45981e-78
8.82918e-78
1.55558e-77
3.40204e-78
4.64951e-77
1.15073e-76
2.13249e-76
4.64608e-77
6.03662e-76
1.44798e-75
2.82462e-75
6.13912e-76
7.56868e-75
1.75858e-74
3.61299e-74
7.84455e-75
9.16009e-74
2.06086e-73
4.46042e-73
9.68831e-74
1.06968e-72
2.32967e-72
5.31214e-72
1.15592e-72
1.20478e-71
2.53965e-71
6.10026e-71
1.33166e-71
1.30829e-70
2.6691e-70
6.75196e-70
1.48067e-70
1.36928e-69
2.70366e-69
7.20027e-69
1.58833e-69
1.38083e-68
2.6389e-68
7.39532e-68
1.64312e-68
1.34127e-67
2.48126e-67
7.31346e-67
1.6387e-67
1.2546e-66
2.24699e-66
6.96192e-66
1.57504e-66
1.12981e-65
1.95939e-65
6.37783e-65
1.45856e-65
9.79323e-65
1.64493e-64
5.62164e-64
1.30103e-64
8.16915e-64
1.32925e-63
4.76672e-63
1.11759e-63
6.55667e-63
1.03378e-62
3.88753e-62
9.24306e-63
5.06264e-62
7.73664e-62
3.04904e-61
7.35891e-62
3.76007e-61
5.57088e-61
2.29951e-60
5.639e-61
2.68588e-60
3.85919e-60
1.66741e-59
4.15831e-60
1.84501e-59
2.57174e-59
1.16237e-58
2.95055e-59
1.21867e-58
1.64848e-58
7.78937e-58
2.01421e-58
7.73953e-58
1.01632e-57
5.01752e-57
1.32275e-57
4.72547e-57
6.02631e-57
3.10653e-56
8.35565e-57
2.77363e-56
3.43654e-56
1.84858e-55
5.07658e-56
1.56493e-55
1.88464e-55
1.0572e-54
2.96631e-55
8.4872e-55
9.9394e-55
5.81044e-54
1.6668e-54
4.42416e-54
5.04096e-54
3.0689e-53
9.00627e-54
2.21655e-53
2.45858e-53
1.55762e-52
4.67919e-53
1.0673e-52
1.15312e-52
7.59688e-52
2.33742e-52
4.93908e-52
5.20108e-52
3.56033e-51
1.12259e-51
2.19655e-51
2.25603e-51
1.60332e-50
5.1832e-51
9.38777e-51
9.41119e-51
6.93765e-50
2.30066e-50
3.85568e-50
3.77577e-50
2.88445e-49
9.81667e-50
1.52178e-49
1.45695e-49
1.1523e-48
4.0264e-49
5.77171e-49
5.40735e-49
4.42293e-48
1.58742e-48
2.10358e-48
1.93039e-48
1.63116e-47
6.01559e-48
7.36735e-48
6.62909e-48
5.77987e-47
2.19109e-47
2.47948e-47
2.18995e-47
1.96776e-46
7.6705e-47
8.01873e-47
6.9601e-47
6.43658e-46
2.58082e-46
2.492e-46
2.12827e-46
2.02285e-45
8.34549e-46
7.44199e-46
6.26175e-46
6.10796e-45
2.59355e-45
2.13567e-45
1.77278e-45
1.77194e-44
7.74598e-45
5.88958e-45
4.82984e-45
4.93882e-44
2.22325e-44
1.5608e-44
1.26637e-44
1.32256e-43
6.13228e-44
3.97492e-44
3.19576e-44
3.4027e-43
1.62543e-43
9.72902e-44
7.76267e-44
8.41122e-43
4.14022e-43
2.28824e-43
1.81955e-43
1.99762e-42
1.01356e-42
5.20588e-43
4.10796e-43
4.56637e-42
2.3842e-42
1.14637e-42
9.11563e-43
1.00631e-41
5.44042e-42
2.42969e-42
1.98654e-42
2.13474e-41
1.20316e-41
4.9526e-42
4.15382e-42
4.35195e-41
2.55346e-41
9.71013e-42
8.33577e-42
8.52649e-41
5.20126e-41
1.83137e-41
1.60577e-41
1.60557e-40
1.017e-40
3.32302e-41
2.96993e-41
2.90592e-40
1.90907e-40
5.80136e-41
5.27488e-41
5.05538e-40
3.44074e-40
9.7454e-41
8.99814e-41
8.45397e-40
5.95463e-40
1.57532e-40
1.47446e-40
1.35901e-39
9.89615e-40
2.4505e-40
2.32118e-40
2.10018e-39
1.5795e-39
3.66837e-40
3.51107e-40
3.12019e-39
2.42126e-39
5.28484e-40
5.10356e-40
4.45665e-39
3.565e-39
7.32713e-40
7.12942e-40
6.12003e-39
5.04192e-39
9.77636e-40
9.57249e-40
8.08035e-39
6.8497e-39
1.25532e-39
1.23544e-39
1.02577e-38
8.9393e-39
1.55116e-39
1.53277e-39
1.25204e-38
1.12075e-38
1.84446e-39
1.82819e-39
1.46944e-38
1.34988e-38
2.11043e-39
2.09643e-39
1.65826e-38
1.56201e-38
2.32352e-39
2.3114e-39
1.79941e-38
1.73651e-38
2.46133e-39
2.45032e-39
1.87755e-38
1.85475e-38
2.50852e-39
2.4977e-39
1.88381e-38
1.90335e-38
2.45959e-39
2.44815e-39
1.81749e-38
1.87663e-38
2.31995e-39
2.30741e-39
1.68615e-38
1.77776e-38
2.10493e-39
2.09126e-39
1.50423e-38
1.6181e-38
1.83701e-39
1.82258e-39
1.2904e-38
1.41507e-38
1.54195e-39
1.52744e-39
1.06445e-38
1.18903e-38
1.24477e-39
1.23095e-39
8.44338e-39
9.59963e-39
9.66366e-40
9.53905e-40
6.44008e-39
7.44662e-39
7.21435e-40
7.10816e-40
4.72332e-39
5.55021e-39
5.17882e-40
5.09316e-40
3.33104e-39
3.9747e-39
3.57452e-40
3.50902e-40
2.25882e-39
2.73491e-39
2.37211e-40
2.32457e-40
1.47282e-39
1.80812e-39
1.51341e-40
1.48063e-40
9.23359e-40
1.14855e-39
9.28251e-41
9.06744e-41
5.56598e-40
7.00998e-40
5.47315e-41
5.3388e-41
3.22591e-40
4.11075e-40
3.10208e-41
3.0221e-41
1.7976e-40
2.31613e-40
1.69003e-41
1.64463e-41
9.63061e-41
1.25383e-40
8.85001e-42
8.60413e-42
4.96051e-41
6.52146e-41
4.45437e-42
4.32723e-42
2.4564e-41
3.25899e-41
2.15479e-42
2.09201e-42
1.1694e-41
1.56476e-41
1.00181e-42
9.72193e-43
5.35184e-42
7.21835e-42
4.4763e-43
4.34274e-43
2.35458e-42
3.19927e-42
1.92216e-43
1.8646e-43
9.95817e-43
1.36233e-42
7.93206e-44
7.69486e-44
4.04848e-43
5.57355e-43
3.14556e-44
3.05211e-44
1.58212e-43
2.19077e-43
1.19872e-44
1.16351e-44
5.94303e-44
8.2732e-44
4.38964e-45
4.26277e-45
2.1458e-44
3.00165e-44
1.54403e-45
1.49998e-45
7.44517e-45
1.04623e-44
5.14155e-46
4.93186e-46
2.45866e-45
3.49205e-45
2.228e-46
2.228e-46
2.228e-46
2.228e-46
1.58987e-79
1.58987e-79
1.58987e-79
1.58987e-79
3.33751e-78
8.82535e-78
1.49296e-77
3.2368e-78
4.64627e-77
1.1935e-76
2.12048e-76
4.57239e-77
6.25111e-76
1.55853e-75
2.91109e-75
6.25191e-76
8.12443e-75
1.96466e-74
3.86073e-74
8.26994e-75
1.01959e-73
2.39014e-73
4.94357e-73
1.05777e-73
1.23502e-72
2.80542e-72
6.10865e-72
1.30754e-72
1.44332e-71
3.17604e-71
7.28074e-71
1.56129e-71
1.62676e-70
3.46711e-70
8.36638e-70
1.80001e-70
1.76768e-69
3.64858e-69
9.26525e-69
2.00279e-69
1.85122e-68
3.70035e-68
9.88497e-68
2.14978e-68
1.86787e-67
3.6159e-67
1.01566e-66
2.22527e-67
1.81532e-66
3.40363e-66
1.00474e-65
2.22054e-66
1.69887e-65
3.08551e-65
9.56696e-65
2.13543e-65
1.53063e-64
2.69329e-64
8.76621e-64
1.97852e-64
1.32735e-63
2.26324e-63
7.72823e-63
1.76571e-63
1.10771e-62
1.83062e-62
6.55392e-62
1.51747e-62
8.89443e-62
1.42501e-61
5.34573e-61
1.25561e-61
6.87054e-61
1.06741e-60
4.19314e-60
1.00011e-60
5.10487e-60