# vtk DataFile Version 2.0
dg(2) output generated by Nextsim
ASCII
DATASET UNSTRUCTURED_GRID
FIELD FieldData 1
TIME 1 1 double
0
POINTS 40000 DOUBLE
0	0	0
0.01	0	0
0.01	0.01	0
0	0.01	0
0.01	0	0
0.02	0	0
0.02	0.01	0
0.01	0.01	0
0.02	0	0
0.03	0	0
0.03	0.01	0
0.02	0.01	0
0.03	0	0
0.04	0	0
0.04	0.01	0
0.03	0.01	0
0.04	0	0
0.05	0	0
0.05	0.01	0
0.04	0.01	0
0.05	0	0
0.06	0	0
0.06	0.01	0
0.05	0.01	0
0.06	0	0
0.07	0	0
0.07	0.01	0
0.06	0.01	0
0.07	0	0
0.08	0	0
0.08	0.01	0
0.07	0.01	0
0.08	0	0
0.09	0	0
0.09	0.01	0
0.08	0.01	0
0.09	0	0
0.1	0	0
0.1	0.01	0
0.09	0.01	0
0.1	0	0
0.11	0	0
0.11	0.01	0
0.1	0.01	0
0.11	0	0
0.12	0	0
0.12	0.01	0
0.11	0.01	0
0.12	0	0
0.13	0	0
0.13	0.01	0
0.12	0.01	0
0.13	0	0
0.14	0	0
0.14	0.01	0
0.13	0.01	0
0.14	0	0
0.15	0	0
0.15	0.01	0
0.14	0.01	0
0.15	0	0
0.16	0	0
0.16	0.01	0
0.15	0.01	0
0.16	0	0
0.17	0	0
0.17	0.01	0
0.16	0.01	0
0.17	0	0
0.18	0	0
0.18	0.01	0
0.17	0.01	0
0.18	0	0
0.19	0	0
0.19	0.01	0
0.18	0.01	0
0.19	0	0
0.2	0	0
0.2	0.01	0
0.19	0.01	0
0.2	0	0
0.21	0	0
0.21	0.01	0
0.2	0.01	0
0.21	0	0
0.22	0	0
0.22	0.01	0
0.21	0.01	0
0.22	0	0
0.23	0	0
0.23	0.01	0
0.22	0.01	0
0.23	0	0
0.24	0	0
0.24	0.01	0
0.23	0.01	0
0.24	0	0
0.25	0	0
0.25	0.01	0
0.24	0.01	0
0.25	0	0
0.26	0	0
0.26	0.01	0
0.25	0.01	0
0.26	0	0
0.27	0	0
0.27	0.01	0
0.26	0.01	0
0.27	0	0
0.28	0	0
0.28	0.01	0
0.27	0.01	0
0.28	0	0
0.29	0	0
0.29	0.01	0
0.28	0.01	0
0.29	0	0
0.3	0	0
0.3	0.01	0
0.29	0.01	0
0.3	0	0
0.31	0	0
0.31	0.01	0
0.3	0.01	0
0.31	0	0
0.32	0	0
0.32	0.01	0
0.31	0.01	0
0.32	0	0
0.33	0	0
0.33	0.01	0
0.32	0.01	0
0.33	0	0
0.34	0	0
0.34	0.01	0
0.33	0.01	0
0.34	0	0
0.35	0	0
0.35	0.01	0
0.34	0.01	0
0.35	0	0
0.36	0	0
0.36	0.01	0
0.35	0.01	0
0.36	0	0
0.37	0	0
0.37	0.01	0
0.36	0.01	0
0.37	0	0
0.38	0	0
0.38	0.01	0
0.37	0.01	0
0.38	0	0
0.39	0	0
0.39	0.01	0
0.38	0.01	0
0.39	0	0
0.4	0	0
0.4	0.01	0
0.39	0.01	0
0.4	0	0
0.41	0	0
0.41	0.01	0
0.4	0.01	0
0.41	0	0
0.42	0	0
0.42	0.01	0
0.41	0.01	0
0.42	0	0
0.43	0	0
0.43	0.01	0
0.42	0.01	0
0.43	0	0
0.44	0	0
0.44	0.01	0
0.43	0.01	0
0.44	0	0
0.45	0	0
0.45	0.01	0
0.44	0.01	0
0.45	0	0
0.46	0	0
0.46	0.01	0
0.45	0.01	0
0.46	0	0
0.47	0	0
0.47	0.01	0
0.46	0.01	0
0.47	0	0
0.48	0	0
0.48	0.01	0
0.47	0.01	0
0.48	0	0
0.49	0	0
0.49	0.01	0
0.48	0.01	0
0.49	0	0
0.5	0	0
0.5	0.01	0
0.49	0.01	0
0.5	0	0
0.51	0	0
0.51	0.01	0
0.5	0.01	0
0.51	0	0
0.52	0	0
0.52	0.01	0
0.51	0.01	0
0.52	0	0
0.53	0	0
0.53	0.01	0
0.52	0.01	0
0.53	0	0
0.54	0	0
0.54	0.01	0
0.53	0.01	0
0.54	0	0
0.55	0	0
0.55	0.01	0
0.54	0.01	0
0.55	0	0
0.56	0	0
0.56	0.01	0
0.55	0.01	0
0.56	0	0
0.57	0	0
0.57	0.01	0
0.56	0.01	0
0.57	0	0
0.58	0	0
0.58	0.01	0
0.57	0.01	0
0.58	0	0
0.59	0	0
0.59	0.01	0
0.58	0.01	0
0.59	0	0
0.6	0	0
0.6	0.01	0
0.59	0.01	0
0.6	0	0
0.61	0	0
0.61	0.01	0
0.6	0.01	0
0.61	0	0
0.62	0	0
0.62	0.01	0
0.61	0.01	0
0.62	0	0
0.63	0	0
0.63	0.01	0
0.62	0.01	0
0.63	0	0
0.64	0	0
0.64	0.01	0
0.63	0.01	0
0.64	0	0
0.65	0	0
0.65	0.01	0
0.64	0.01	0
0.65	0	0
0.66	0	0
0.66	0.01	0
0.65	0.01	0
0.66	0	0
0.67	0	0
0.67	0.01	0
0.66	0.01	0
0.67	0	0
0.68	0	0
0.68	0.01	0
0.67	0.01	0
0.68	0	0
0.69	0	0
0.69	0.01	0
0.68	0.01	0
0.69	0	0
0.7	0	0
0.7	0.01	0
0.69	0.01	0
0.7	0	0
0.71	0	0
0.71	0.01	0
0.7	0.01	0
0.71	0	0
0.72	0	0
0.72	0.01	0
0.71	0.01	0
0.72	0	0
0.73	0	0
0.73	0.01	0
0.72	0.01	0
0.73	0	0
0.74	0	0
0.74	0.01	0
0.73	0.01	0
0.74	0	0
0.75	0	0
0.75	0.01	0
0.74	0.01	0
0.75	0	0
0.76	0	0
0.76	0.01	0
0.75	0.01	0
0.76	0	0
0.77	0	0
0.77	0.01	0
0.76	0.01	0
0.77	0	0
0.78	0	0
0.78	0.01	0
0.77	0.01	0
0.78	0	0
0.79	0	0
0.79	0.01	0
0.78	0.01	0
0.79	0	0
0.8	0	0
0.8	0.01	0
0.79	0.01	0
0.8	0	0
0.81	0	0
0.81	0.01	0
0.8	0.01	0
0.81	0	0
0.82	0	0
0.82	0.01	0
0.81	0.01	0
0.82	0	0
0.83	0	0
0.83	0.01	0
0.82	0.01	0
0.83	0	0
0.84	0	0
0.84	0.01	0
0.83	0.01	0
0.84	0	0
0.85	0	0
0.85	0.01	0
0.84	0.01	0
0.85	0	0
0.86	0	0
0.86	0.01	0
0.85	0.01	0
0.86	0	0
0.87	0	0
0.87	0.01	0
0.86	0.01	0
0.87	0	0
0.88	0	0
0.88	0.01	0
0.87	0.01	0
0.88	0	0
0.89	0	0
0.89	0.01	0
0.88	0.01	0
0.89	0	0
0.9	0	0
0.9	0.01	0
0.89	0.01	0
0.9	0	0
0.91	0	0
0.91	0.01	0
0.9	0.01	0
0.91	0	0
0.92	0	0
0.92	0.01	0
0.91	0.01	0
0.92	0	0
0.93	0	0
0.93	0.01	0
0.92	0.01	0
0.93	0	0
0.94	0	0
0.94	0.01	0
0.93	0.01	0
0.94	0	0
0.95	0	0
0.95	0.01	0
0.94	0.01	0
0.95	0	0
0.96	0	0
0.96	0.01	0
0.95	0.01	0
0.96	0	0
0.97	0	0
0.97	0.01	0
0.96	0.01	0
0.97	0	0
0.98	0	0
0.98	0.01	0
0.97	0.01	0
0.98	0	0
0.99	0	0
0.99	0.01	0
0.98	0.01	0
0.99	0	0
1	0	0
1	0.01	0
0.99	0.01	0
0	0.01	0
0.01	0.01	0
0.01	0.02	0
0	0.02	0
0.01	0.01	0
0.02	0.01	0
0.02	0.02	0
0.01	0.02	0
0.02	0.01	0
0.03	0.01	0
0.03	0.02	0
0.02	0.02	0
0.03	0.01	0
0.04	0.01	0
0.04	0.02	0
0.03	0.02	0
0.04	0.01	0
0.05	0.01	0
0.05	0.02	0
0.04	0.02	0
0.05	0.01	0
0.06	0.01	0
0.06	0.02	0
0.05	0.02	0
0.06	0.01	0
0.07	0.01	0
0.07	0.02	0
0.06	0.02	0
0.07	0.01	0
0.08	0.01	0
0.08	0.02	0
0.07	0.02	0
0.08	0.01	0
0.09	0.01	0
0.09	0.02	0
0.08	0.02	0
0.09	0.01	0
0.1	0.01	0
0.1	0.02	0
0.09	0.02	0
0.1	0.01	0
0.11	0.01	0
0.11	0.02	0
0.1	0.02	0
0.11	0.01	0
0.12	0.01	0
0.12	0.02	0
0.11	0.02	0
0.12	0.01	0
0.13	0.01	0
0.13	0.02	0
0.12	0.02	0
0.13	0.01	0
0.14	0.01	0
0.14	0.02	0
0.13	0.02	0
0.14	0.01	0
0.15	0.01	0
0.15	0.02	0
0.14	0.02	0
0.15	0.01	0
0.16	0.01	0
0.16	0.02	0
0.15	0.02	0
0.16	0.01	0
0.17	0.01	0
0.17	0.02	0
0.16	0.02	0
0.17	0.01	0
0.18	0.01	0
0.18	0.02	0
0.17	0.02	0
0.18	0.01	0
0.19	0.01	0
0.19	0.02	0
0.18	0.02	0
0.19	0.01	0
0.2	0.01	0
0.2	0.02	0
0.19	0.02	0
0.2	0.01	0
0.21	0.01	0
0.21	0.02	0
0.2	0.02	0
0.21	0.01	0
0.22	0.01	0
0.22	0.02	0
0.21	0.02	0
0.22	0.01	0
0.23	0.01	0
0.23	0.02	0
0.22	0.02	0
0.23	0.01	0
0.24	0.01	0
0.24	0.02	0
0.23	0.02	0
0.24	0.01	0
0.25	0.01	0
0.25	0.02	0
0.24	0.02	0
0.25	0.01	0
0.26	0.01	0
0.26	0.02	0
0.25	0.02	0
0.26	0.01	0
0.27	0.01	0
0.27	0.02	0
0.26	0.02	0
0.27	0.01	0
0.28	0.01	0
0.28	0.02	0
0.27	0.02	0
0.28	0.01	0
0.29	0.01	0
0.29	0.02	0
0.28	0.02	0
0.29	0.01	0
0.3	0.01	0
0.3	0.02	0
0.29	0.02	0
0.3	0.01	0
0.31	0.01	0
0.31	0.02	0
0.3	0.02	0
0.31	0.01	0
0.32	0.01	0
0.32	0.02	0
0.31	0.02	0
0.32	0.01	0
0.33	0.01	0
0.33	0.02	0
0.32	0.02	0
0.33	0.01	0
0.34	0.01	0
0.34	0.02	0
0.33	0.02	0
0.34	0.01	0
0.35	0.01	0
0.35	0.02	0
0.34	0.02	0
0.35	0.01	0
0.36	0.01	0
0.36	0.02	0
0.35	0.02	0
0.36	0.01	0
0.37	0.01	0
0.37	0.02	0
0.36	0.02	0
0.37	0.01	0
0.38	0.01	0
0.38	0.02	0
0.37	0.02	0
0.38	0.01	0
0.39	0.01	0
0.39	0.02	0
0.38	0.02	0
0.39	0.01	0
0.4	0.01	0
0.4	0.02	0
0.39	0.02	0
0.4	0.01	0
0.41	0.01	0
0.41	0.02	0
0.4	0.02	0
0.41	0.01	0
0.42	0.01	0
0.42	0.02	0
0.41	0.02	0
0.42	0.01	0
0.43	0.01	0
0.43	0.02	0
0.42	0.02	0
0.43	0.01	0
0.44	0.01	0
0.44	0.02	0
0.43	0.02	0
0.44	0.01	0
0.45	0.01	0
0.45	0.02	0
0.44	0.02	0
0.45	0.01	0
0.46	0.01	0
0.46	0.02	0
0.45	0.02	0
0.46	0.01	0
0.47	0.01	0
0.47	0.02	0
0.46	0.02	0
0.47	0.01	0
0.48	0.01	0
0.48	0.02	0
0.47	0.02	0
0.48	0.01	0
0.49	0.01	0
0.49	0.02	0
0.48	0.02	0
0.49	0.01	0
0.5	0.01	0
0.5	0.02	0
0.49	0.02	0
0.5	0.01	0
0.51	0.01	0
0.51	0.02	0
0.5	0.02	0
0.51	0.01	0
0.52	0.01	0
0.52	0.02	0
0.51	0.02	0
0.52	0.01	0
0.53	0.01	0
0.53	0.02	0
0.52	0.02	0
0.53	0.01	0
0.54	0.01	0
0.54	0.02	0
0.53	0.02	0
0.54	0.01	0
0.55	0.01	0
0.55	0.02	0
0.54	0.02	0
0.55	0.01	0
0.56	0.01	0
0.56	0.02	0
0.55	0.02	0
0.56	0.01	0
0.57	0.01	0
0.57	0.02	0
0.56	0.02	0
0.57	0.01	0
0.58	0.01	0
0.58	0.02	0
0.57	0.02	0
0.58	0.01	0
0.59	0.01	0
0.59	0.02	0
0.58	0.02	0
0.59	0.01	0
0.6	0.01	0
0.6	0.02	0
0.59	0.02	0
0.6	0.01	0
0.61	0.01	0
0.61	0.02	0
0.6	0.02	0
0.61	0.01	0
0.62	0.01	0
0.62	0.02	0
0.61	0.02	0
0.62	0.01	0
0.63	0.01	0
0.63	0.02	0
0.62	0.02	0
0.63	0.01	0
0.64	0.01	0
0.64	0.02	0
0.63	0.02	0
0.64	0.01	0
0.65	0.01	0
0.65	0.02	0
0.64	0.02	0
0.65	0.01	0
0.66	0.01	0
0.66	0.02	0
0.65	0.02	0
0.66	0.01	0
0.67	0.01	0
0.67	0.02	0
0.66	0.02	0
0.67	0.01	0
0.68	0.01	0
0.68	0.02	0
0.67	0.02	0
0.68	0.01	0
0.69	0.01	0
0.69	0.02	0
0.68	0.02	0
0.69	0.01	0
0.7	0.01	0
0.7	0.02	0
0.69	0.02	0
0.7	0.01	0
0.71	0.01	0
0.71	0.02	0
0.7	0.02	0
0.71	0.01	0
0.72	0.01	0
0.72	0.02	0
0.71	0.02	0
0.72	0.01	0
0.73	0.01	0
0.73	0.02	0
0.72	0.02	0
0.73	0.01	0
0.74	0.01	0
0.74	0.02	0
0.73	0.02	0
0.74	0.01	0
0.75	0.01	0
0.75	0.02	0
0.74	0.02	0
0.75	0.01	0
0.76	0.01	0
0.76	0.02	0
0.75	0.02	0
0.76	0.01	0
0.77	0.01	0
0.77	0.02	0
0.76	0.02	0
0.77	0.01	0
0.78	0.01	0
0.78	0.02	0
0.77	0.02	0
0.78	0.01	0
0.79	0.01	0
0.79	0.02	0
0.78	0.02	0
0.79	0.01	0
0.8	0.01	0
0.8	0.02	0
0.79	0.02	0
0.8	0.01	0
0.81	0.01	0
0.81	0.02	0
0.8	0.02	0
0.81	0.01	0
0.82	0.01	0
0.82	0.02	0
0.81	0.02	0
0.82	0.01	0
0.83	0.01	0
0.83	0.02	0
0.82	0.02	0
0.83	0.01	0
0.84	0.01	0
0.84	0.02	0
0.83	0.02	0
0.84	0.01	0
0.85	0.01	0
0.85	0.02	0
0.84	0.02	0
0.85	0.01	0
0.86	0.01	0
0.86	0.02	0
0.85	0.02	0
0.86	0.01	0
0.87	0.01	0
0.87	0.02	0
0.86	0.02	0
0.87	0.01	0
0.88	0.01	0
0.88	0.02	0
0.87	0.02	0
0.88	0.01	0
0.89	0.01	0
0.89	0.02	0
0.88	0.02	0
0.89	0.01	0
0.9	0.01	0
0.9	0.02	0
0.89	0.02	0
0.9	0.01	0
0.91	0.01	0
0.91	0.02	0
0.9	0.02	0
0.91	0.01	0
0.92	0.01	0
0.92	0.02	0
0.91	0.02	0
0.92	0.01	0
0.93	0.01	0
0.93	0.02	0
0.92	0.02	0
0.93	0.01	0
0.94	0.01	0
0.94	0.02	0
0.93	0.02	0
0.94	0.01	0
0.95	0.01	0
0.95	0.02	0
0.94	0.02	0
0.95	0.01	0
0.96	0.01	0
0.96	0.02	0
0.95	0.02	0
0.96	0.01	0
0.97	0.01	0
0.97	0.02	0
0.96	0.02	0
0.97	0.01	0
0.98	0.01	0
0.98	0.02	0
0.97	0.02	0
0.98	0.01	0
0.99	0.01	0
0.99	0.02	0
0.98	0.02	0
0.99	0.01	0
1	0.01	0
1	0.02	0
0.99	0.02	0
0	0.02	0
0.01	0.02	0
0.01	0.03	0
0	0.03	0
0.01	0.02	0
0.02	0.02	0
0.02	0.03	0
0.01	0.03	0
0.02	0.02	0
0.03	0.02	0
0.03	0.03	0
0.02	0.03	0
0.03	0.02	0
0.04	0.02	0
0.04	0.03	0
0.03	0.03	0
0.04	0.02	0
0.05	0.02	0
0.05	0.03	0
0.04	0.03	0
0.05	0.02	0
0.06	0.02	0
0.06	0.03	0
0.05	0.03	0
0.06	0.02	0
0.07	0.02	0
0.07	0.03	0
0.06	0.03	0
0.07	0.02	0
0.08	0.02	0
0.08	0.03	0
0.07	0.03	0
0.08	0.02	0
0.09	0.02	0
0.09	0.03	0
0.08	0.03	0
0.09	0.02	0
0.1	0.02	0
0.1	0.03	0
0.09	0.03	0
0.1	0.02	0
0.11	0.02	0
0.11	0.03	0
0.1	0.03	0
0.11	0.02	0
0.12	0.02	0
0.12	0.03	0
0.11	0.03	0
0.12	0.02	0
0.13	0.02	0
0.13	0.03	0
0.12	0.03	0
0.13	0.02	0
0.14	0.02	0
0.14	0.03	0
0.13	0.03	0
0.14	0.02	0
0.15	0.02	0
0.15	0.03	0
0.14	0.03	0
0.15	0.02	0
0.16	0.02	0
0.16	0.03	0
0.15	0.03	0
0.16	0.02	0
0.17	0.02	0
0.17	0.03	0
0.16	0.03	0
0.17	0.02	0
0.18	0.02	0
0.18	0.03	0
0.17	0.03	0
0.18	0.02	0
0.19	0.02	0
0.19	0.03	0
0.18	0.03	0
0.19	0.02	0
0.2	0.02	0
0.2	0.03	0
[...]
POINT_DATA 40000
SCALARS dg2 DOUBLE 
LOOKUP_TABLE default
2.6212e-83
2.6212e-83
2.6212e-83
2.6212e-83
3.31929e-82
3.31929e-82
3.31929e-82
3.31929e-82
4.37105e-81
4.37105e-81
4.37105e-81
4.37105e-81
5.57739e-80
5.57739e-80
5.57739e-80
5.57739e-80
6.89232e-79
6.89232e-79
6.89232e-79
6.89232e-79
8.24487e-78
8.24487e-78
8.24487e-78
8.24487e-78
9.54315e-77
9.54315e-77
9.54315e-77
9.54315e-77
1.06832e-75
1.06832e-75
1.06832e-75
1.06832e-75
1.15623e-74
1.15623e-74
1.15623e-74
1.15623e-74
1.20934e-73
1.20934e-73
1.20934e-73
1.20934e-73
1.22196e-72
1.22196e-72
1.22196e-72
1.22196e-72
1.19242e-71
1.19242e-71
1.19242e-71
1.19242e-71
1.12337e-70
1.12337e-70
1.12337e-70
1.12337e-70
1.02144e-69
1.02144e-69
1.02144e-69
1.02144e-69
8.96128e-69
8.96128e-69
8.96128e-69
8.96128e-69
7.58375e-68
7.58375e-68
7.58375e-68
7.58375e-68
6.18938e-67
6.18938e-67
6.18938e-67
6.18938e-67
4.87032e-66
4.87032e-66
4.87032e-66
4.87032e-66
3.69421e-65
3.69421e-65
3.69421e-65
3.69421e-65
2.70054e-64
2.70054e-64
2.70054e-64
2.70054e-64
1.90222e-63
1.90222e-63
1.90222e-63
1.90222e-63
1.29085e-62
1.29085e-62
1.29085e-62
1.29085e-62
8.43772e-62
8.43772e-62
8.43772e-62
8.43772e-62
5.31176e-61
5.31176e-61
5.31176e-61
5.31176e-61
3.21999e-60
3.21999e-60
3.21999e-60
3.21999e-60
1.87938e-59
1.87938e-59
1.87938e-59
1.87938e-59
1.05599e-58
1.05599e-58
1.05599e-58
1.05599e-58
5.71146e-58
5.71146e-58
5.71146e-58
5.71146e-58
2.97319e-57
2.97319e-57
2.97319e-57
2.97319e-57
1.48952e-56
1.48952e-56
1.48952e-56
1.48952e-56
7.18079e-56
7.18079e-56
7.18079e-56
7.18079e-56
3.33093e-55
3.33093e-55
3.33093e-55
3.33093e-55
1.48658e-54
1.48658e-54
1.48658e-54
1.48658e-54
6.3828e-54
6.3828e-54
6.3828e-54
6.3828e-54
2.63632e-53
2.63632e-53
2.63632e-53
2.63632e-53
1.04743e-52
1.04743e-52
1.04743e-52
1.04743e-52
4.00277e-52
4.00277e-52
4.00277e-52
4.00277e-52
1.47124e-51
1.47124e-51
1.47124e-51
1.47124e-51
5.20077e-51
5.20077e-51
5.20077e-51
5.20077e-51
1.76804e-50
1.76804e-50
1.76804e-50
1.76804e-50
5.78013e-50
5.78013e-50
5.78013e-50
5.78013e-50
1.81712e-49
1.81712e-49
1.81712e-49
1.81712e-49
5.49306e-49
5.49306e-49
5.49306e-49
5.49306e-49
1.59666e-48
1.59666e-48
1.59666e-48
1.59666e-48
4.46233e-48
4.46233e-48
4.46233e-48
4.46233e-48
1.19908e-47
1.19908e-47
1.19908e-47
1.19908e-47
3.09788e-47
3.09788e-47
3.09788e-47
3.09788e-47
7.69512e-47
7.69512e-47
7.69512e-47
7.69512e-47
1.83815e-46
1.83815e-46
1.83815e-46
1.83815e-46
4.22641e-46
4.22641e-46
4.22641e-46
4.22641e-46
9.39543e-46
9.39543e-46
9.39543e-46
9.39543e-46
2.01806e-45
2.01806e-45
2.01806e-45
2.01806e-45
4.1688e-45
4.1688e-45
4.1688e-45
4.1688e-45
8.28268e-45
8.28268e-45
8.28268e-45
8.28268e-45
1.58283e-44
1.58283e-44
1.58283e-44
1.58283e-44
2.90954e-44
2.90954e-44
2.90954e-44
2.90954e-44
5.14468e-44
5.14468e-44
5.14468e-44
5.14468e-44
8.75097e-44
8.75097e-44
8.75097e-44
8.75097e-44
1.43197e-43
1.43197e-43
1.43197e-43
1.43197e-43
2.25427e-43
2.25427e-43
2.25427e-43
2.25427e-43
3.41418e-43
3.41418e-43
3.41418e-43
3.41418e-43
4.97489e-43
4.97489e-43
4.97489e-43
4.97489e-43
6.97435e-43
6.97435e-43
6.97435e-43
6.97435e-43
9.40701e-43
9.40701e-43
9.40701e-43
9.40701e-43
1.22075e-42
1.22075e-42
1.22075e-42
1.22075e-42
1.52414e-42
1.52414e-42
1.52414e-42
1.52414e-42
1.83081e-42
1.83081e-42
1.83081e-42
1.83081e-42
2.11576e-42
2.11576e-42
2.11576e-42
2.11576e-42
2.35224e-42
2.35224e-42
2.35224e-42
2.35224e-42
2.51578e-42
2.51578e-42
2.51578e-42
2.51578e-42
2.58832e-42
2.58832e-42
2.58832e-42
2.58832e-42
2.56148e-42
2.56148e-42
2.56148e-42
2.56148e-42
2.43819e-42
2.43819e-42
2.43819e-42
2.43819e-42
2.23211e-42
2.23211e-42
2.23211e-42
2.23211e-42
1.96519e-42
1.96519e-42
1.96519e-42
1.96519e-42
1.66378e-42
1.66378e-42
1.66378e-42
1.66378e-42
1.35443e-42
1.35443e-42
1.35443e-42
1.35443e-42
1.0601e-42
1.0601e-42
1.0601e-42
1.0601e-42
7.9767e-43
7.9767e-43
7.9767e-43
7.9767e-43
5.76965e-43
5.76965e-43
5.76965e-43
5.76965e-43
4.01128e-43
4.01128e-43
4.01128e-43
4.01128e-43
2.68028e-43
2.68028e-43
2.68028e-43
2.68028e-43
1.72107e-43
1.72107e-43
1.72107e-43
1.72107e-43
1.06192e-43
1.06192e-43
1.06192e-43
1.06192e-43
6.29539e-44
6.29539e-44
6.29539e-44
6.29539e-44
3.58544e-44
3.58544e-44
3.58544e-44
3.58544e-44
1.96159e-44
1.96159e-44
1.96159e-44
1.96159e-44
1.03081e-44
1.03081e-44
1.03081e-44
1.03081e-44
5.20242e-45
5.20242e-45
5.20242e-45
5.20242e-45
2.52143e-45
2.52143e-45
2.52143e-45
2.52143e-45
1.17344e-45
1.17344e-45
1.17344e-45
1.17344e-45
5.24318e-46
5.24318e-46
5.24318e-46
5.24318e-46
2.2491e-46
2.2491e-46
2.2491e-46
2.2491e-46
9.26092e-47
9.26092e-47
9.26092e-47
9.26092e-47
3.66001e-47
3.66001e-47
3.66001e-47
3.66001e-47
1.38817e-47
1.38817e-47
1.38817e-47
1.38817e-47
5.05199e-48
5.05199e-48
5.05199e-48
5.05199e-48
1.76242e-48
1.76242e-48
1.76242e-48
1.76242e-48
6.11803e-49
6.11803e-49
6.11803e-49
6.11803e-49
5.8343e-49
5.8343e-49
5.8343e-49
5.8343e-49
9.18798e-83
9.18798e-83
9.18798e-83
9.18798e-83
1.42909e-81
5.46892e-81
6.80162e-81
1.16392e-81
1.85329e-80
6.45316e-80
8.50274e-80
1.54091e-80
2.37987e-79
7.48855e-79
1.05519e-78
2.03184e-79
3.01095e-78
8.55167e-78
1.2977e-77
2.64953e-78
3.73347e-77
9.60688e-77
1.57634e-76
3.3927e-77
4.51541e-76
1.06031e-75
1.88329e-75
4.24007e-76
5.30532e-75
1.1474e-74
2.20305e-74
5.14727e-75
6.03644e-74
1.21429e-73
2.51269e-73
6.04834e-74
6.63547e-73
1.25335e-72
2.7841e-72
6.8626e-73
7.03447e-72
1.25838e-71
2.98798e-71
7.50612e-72
7.18332e-71
1.22596e-70
3.09898e-70
7.90582e-71
7.05961e-70
1.15651e-69
3.10065e-69
8.01277e-70
6.67332e-69
1.05455e-68
2.989e-68
7.81156e-69
6.06507e-68
9.28112e-68
2.77353e-67
7.32321e-68
5.29844e-67
7.87521e-67
2.47565e-66
6.60102e-67
4.44839e-66
6.43673e-66
2.12466e-65
5.72048e-66
3.58884e-65
5.06426e-65
1.75264e-64
4.76597e-65
2.7821e-64
3.83344e-64
1.38931e-63
3.81734e-64
2.07224e-63
2.79073e-63
1.05815e-62
2.93943e-63
1.48303e-62
1.95334e-62
7.74256e-62
2.176e-62
1.01975e-61
1.31425e-61
5.44238e-61
1.54864e-61
6.73715e-61
8.49881e-61
3.67485e-60
1.05959e-60
4.27658e-60
5.28169e-60
2.38356e-59
6.96988e-60
2.6083e-59
3.15424e-59
1.48506e-58
4.40766e-59
1.52849e-58
1.81013e-58
8.88771e-58
2.67969e-58
8.60631e-58
9.98186e-58
5.10935e-57
1.56621e-57
4.65611e-57
5.28939e-57
2.82145e-56
8.80036e-57
2.42039e-56
2.69339e-56
1.49663e-55
4.75366e-56
1.20895e-55
1.31798e-55
7.62592e-55
2.46846e-55
5.80226e-55
6.19807e-55
3.7326e-54
1.23221e-54
2.67582e-54
2.80133e-54
1.75499e-53
5.9129e-54
1.18575e-53
1.21691e-53
7.92658e-53
2.72747e-53
5.04905e-53
5.08131e-53
3.43913e-52
1.20936e-52
2.06593e-52
2.03961e-52
1.43339e-51
5.1544e-52
8.12301e-52
7.87068e-52
5.73906e-51
2.11163e-51
3.06917e-51
2.92019e-51
2.20738e-50
8.31511e-51
1.11439e-50
1.04181e-50
8.156e-50
3.14715e-50
3.88843e-50
3.57427e-50
2.89497e-49
1.14488e-49
1.30389e-49
1.17939e-49
9.87142e-49
4.00296e-49
4.20197e-49
3.74327e-49
3.23361e-48
1.34518e-48
1.30142e-48
1.14292e-48
1.01758e-47
4.34454e-48
3.87394e-48
3.35741e-48
3.07628e-47
1.34855e-47
1.10833e-47
9.49006e-48
8.93432e-47
4.02291e-47
3.04778e-47
2.58147e-47
2.49275e-46
1.15335e-46
8.05603e-47
6.75847e-47
6.68161e-46
3.17772e-46
2.04678e-46
1.70391e-46
1.72055e-45
8.41422e-46
5.00235e-46
4.1341e-46
4.25739e-45
2.14097e-45
1.17433e-45
9.78821e-46
1.01195e-44
5.23963e-45
2.70348e-45
2.24013e-45
2.32624e-44
1.23234e-44
6.1207e-45
5.09785e-45
5.19229e-44
2.8397e-44
1.33701e-44
1.15603e-44
1.11858e-43
6.40469e-44
2.81009e-44
2.50361e-44
2.31653e-43
1.38561e-43
5.68302e-44
5.18546e-44
4.61268e-43
2.87655e-43
1.1059e-43
1.02829e-43
8.83248e-43
5.73237e-43
2.07075e-43
1.95402e-43
1.62664e-42
1.09685e-42
3.7308e-43
3.56077e-43
2.88166e-42
2.01565e-42
6.46724e-43
6.22601e-43
4.91118e-42
3.55805e-42
1.07857e-42
1.04503e-42
8.05321e-42
6.03404e-42
1.73044e-42
1.68448e-42
1.27067e-41
9.83222e-42
2.67056e-42
2.60825e-42
1.92932e-41
1.53951e-41
3.96406e-42
3.8804e-42
2.8191e-41
2.31647e-41
5.65878e-42
5.54783e-42
3.9643e-41
3.34967e-41
7.7678e-42
7.62323e-42
5.3651e-41
4.65498e-41
1.02521e-41
1.00683e-41
6.98785e-41
6.2169e-41
1.30081e-41
1.27818e-41
8.75901e-41
7.9793e-41
1.58651e-41
1.55972e-41
1.05656e-40
9.84191e-41
1.8597e-41
1.82938e-41
1.22642e-40
1.16654e-40
2.0949e-41
2.06228e-41
1.36981e-40
1.32865e-40
2.26748e-41
2.23431e-41
1.47203e-40
1.45406e-40
2.35792e-41
2.32624e-41
1.52184e-40
1.52895e-40
2.3554e-41
2.32723e-41
1.51346e-40
1.54459e-40
2.25995e-41
2.2369e-41
1.44767e-40
1.49904e-40
2.08245e-41
2.06552e-41
1.33173e-40
1.39753e-40
1.84264e-41
1.83203e-41
1.17802e-40
1.25149e-40
1.56547e-41
1.56064e-41
1.00189e-40
1.07642e-40
1.27684e-41
1.27668e-41
8.1914e-41
8.89169e-41
9.99679e-42
1.0028e-41
6.43743e-41
7.05357e-41
7.51219e-42
7.56214e-42
4.86207e-41
5.37306e-41
5.41752e-42
5.4741e-42
3.52878e-41
3.92996e-41
3.74895e-42
3.80331e-42
2.46073e-41
2.7598e-41
2.48907e-42
2.53591e-42
1.64847e-41
1.86062e-41
1.58536e-42
1.62244e-42
1.06077e-41
1.20418e-41
9.68549e-43
9.95872e-43
6.55574e-42
7.48087e-42
5.67484e-43
5.86379e-43
3.89072e-42
4.46069e-42
3.18829e-43
3.31152e-43
2.21713e-42
2.55276e-42
1.71736e-43
1.79342e-43
1.21297e-42
1.40198e-42
8.86714e-44
9.31264e-44
6.37011e-43
7.38855e-43
4.38772e-44
4.63574e-44
3.21094e-43
3.73619e-43
2.08032e-44
2.21177e-44
1.55327e-43
1.81264e-43
9.44818e-45
1.01121e-44
7.20999e-44
8.43659e-44
4.1093e-45
4.42919e-45
3.21097e-44
3.76664e-44
1.71099e-45
1.85812e-45
1.3718e-44
1.61297e-44
6.81745e-46
7.46378e-46
5.62128e-45
6.62425e-45
2.59833e-46
2.86968e-46
2.20902e-45
2.60874e-45
9.46734e-47
1.05564e-46
8.3236e-46
9.85033e-46
3.29437e-47
3.7122e-47
3.00633e-46
3.56542e-46
1.0908e-47
1.24238e-47
1.03878e-46
1.23568e-46
4.84751e-48
4.47791e-48
3.7715e-47
4.30739e-47
7.36667e-48
7.36667e-48
7.36667e-48
7.36667e-48
1.38072e-81
1.38072e-81
1.38072e-81
1.38072e-81
2.19158e-80
8.26397e-80
1.03373e-79
1.71254e-80
2.849e-79
9.83063e-79
1.29903e-78
2.26572e-79
3.66111e-78
1.14907e-77
1.61726e-77
2.98415e-78
4.62956e-77
1.32029e-76
1.99144e-76
3.88679e-77
5.73328e-76
1.49058e-75
2.41813e-75
4.97248e-76
6.92298e-75
1.65138e-74
2.88444e-74
6.21125e-75
8.12058e-74
1.79188e-73
3.36631e-73
7.53947e-74
9.22545e-73
1.89984e-72
3.82908e-72
8.86172e-73
1.01275e-71
1.96327e-71
4.23083e-71
1.00604e-71
1.07248e-70
1.97258e-70
4.5284e-70
1.10124e-70
1.09426e-69
1.92263e-69
4.68489e-69
1.16095e-69
1.07476e-68
1.8143e-68
4.6769e-68
1.17785e-68
1.01554e-67
1.65482e-67
4.49958e-67
1.14948e-67
9.22758e-67
1.4569e-66
4.16805e-66
1.07875e-66
8.0604e-66
1.23671e-65
3.7149e-65
9.73375e-66
6.76732e-65
1.01133e-64
3.18419e-64
8.44368e-65
5.46022e-64
7.96179e-64
2.62383e-63
7.04134e-64
4.23347e-63
6.0311e-63
2.07801e-62
5.64472e-63
3.15393e-62
4.39418e-62
1.58146e-61
4.35001e-62
2.25767e-61
3.07841e-61
1.15642e-60
3.22255e-61
1.55278e-60
2.07321e-60
8.12417e-60
2.29495e-60
1.02612e-59
1.34202e-59
5.48313e-59
1.57113e-59
6.51506e-59
8.34869e-59
3.55505e-58
1.03399e-58
3.97439e-58
4.99103e-58
2.21422e-57
6.54168e-58
2.32945e-57
2.86714e-57
1.32479e-56
3.97857e-57
1.3118e-56
1.58264e-56
7.61415e-56
2.3261e-56
7.09768e-56
8.39424e-56
4.20381e-55
1.30734e-55
3.68976e-55
4.27809e-55
2.22953e-54
7.06326e-55
1.84295e-54
2.09504e-54
1.13587e-53
3.66835e-54
8.84438e-54
9.8587e-54
5.55902e-53
1.83139e-53
4.07812e-53
4.45807e-53
2.61347e-52
8.78872e-53
1.80673e-52
1.93727e-52
1.1803e-51
4.05416e-52
7.69079e-52
8.09048e-52
5.12064e-51
1.79763e-51
3.14555e-51
3.24728e-51
2.1341e-50
7.66146e-51
1.23615e-50
1.25273e-50
8.54408e-50
3.13857e-50
4.66772e-50
4.64528e-50
3.2861e-49
1.23581e-49
1.69355e-49
1.65584e-49
1.21412e-48
4.67693e-49
5.90414e-49
5.67433e-49
4.30932e-48
1.7012e-48
1.97783e-48
1.86954e-48
1.46936e-47
5.9474e-48
6.36649e-48
5.92266e-48
4.81301e-47
1.99833e-47
1.96925e-47
1.80429e-47
1.51454e-46
6.45313e-47
5.85325e-47
5.28619e-47
4.57844e-46
2.00276e-46
1.67187e-46
1.48962e-46
1.32964e-45
5.97359e-46
4.58907e-46
4.03785e-46
3.70961e-45
1.71232e-45
1.21055e-45
1.05297e-45
9.94273e-45
4.71704e-45
3.06881e-45
2.64287e-45
2.56015e-44
1.24881e-44
7.48149e-45
6.38132e-45
6.33437e-44
3.17704e-44
1.75169e-44
1.5008e-44
1.50552e-43
7.77346e-44
4.01609e-44
3.41067e-44
3.45892e-43
1.82792e-43
9.05461e-44
7.70963e-44
7.71089e-43
4.2074e-43
1.97183e-43
1.73643e-43
1.65859e-42
9.46954e-43
4.13056e-43
3.73749e-43
3.42914e-42
2.04431e-42
8.32369e-43
7.69691e-43
6.81572e-42
4.23475e-42
1.61363e-42
1.51803e-42
1.30252e-41
8.41985e-42
3.00941e-42
2.86952e-42
2.39368e-41
1.60727e-41
5.39932e-42
5.20203e-42
4.23069e-41
2.94629e-41
9.31893e-42
9.04893e-42
7.19228e-41
5.18728e-41
1.54718e-41
1.511e-41
1.17619e-40
8.77294e-41
2.47077e-41
2.42283e-41
1.85045e-40
1.42542e-40
3.79498e-41
3.73158e-41
2.80091e-40
2.22519e-40
5.60572e-41
5.5216e-41
4.0791e-40
3.3377e-40
7.96263e-41
7.85075e-41
5.71595e-40
4.81064e-40
1.08752e-40
1.07271e-40
7.70688e-40
6.66259e-40
1.42799e-40
1.40867e-40
9.99856e-40
8.86691e-40
1.80247e-40
1.77793e-40
1.24813e-39
1.13393e-39
2.18684e-40
2.15673e-40
1.4991e-39
1.39341e-39
2.54986e-40
2.5145e-40
1.73233e-39
1.64527e-39
2.85702e-40
2.81748e-40
1.92593e-39
1.86656e-39
3.07577e-40
3.03388e-40
2.05979e-39
2.03458e-39
3.18115e-40
3.13929e-40
2.11906e-39
2.13066e-39
3.16048e-40
3.12119e-40
2.09684e-39
2.14355e-39
3.01581e-40
2.98141e-40
1.99545e-39
2.07162e-39
2.76368e-40
2.73583e-40
1.82611e-39
1.92314e-39
2.43192e-40
2.41141e-40
1.60682e-39
1.71479e-39
2.05464e-40
2.04134e-40
1.3593e-39
1.46852e-39
1.66646e-40
1.65946e-40
1.10539e-39
1.20778e-39
1.2974e-40
1.2953e-40
8.64001e-40
9.53896e-40
9.69437e-41
9.70657e-41
6.49014e-40
7.23422e-40
6.95148e-41
6.9823e-41
4.68468e-40
5.26779e-40
4.78289e-41
4.82067e-41
3.24889e-40
3.68281e-40
3.15719e-41
3.19398e-41
2.16453e-40
2.4718e-40
1.99917e-41
2.03054e-41
1.38519e-40
1.59256e-40
1.21415e-41
1.23845e-41
8.51372e-41
9.84912e-41
7.0713e-42
7.24552e-42
5.02497e-41
5.84633e-41
3.94877e-42
4.0655e-42
2.84772e-41
3.33058e-41
2.11388e-42
2.18745e-42
1.54937e-41
1.82084e-41
1.08459e-42
1.1284e-42
8.09185e-42
9.55223e-42
5.33247e-43
5.57959e-43
4.05622e-42
4.80817e-42
2.51164e-43
2.64404e-43
1.95126e-42
2.32198e-42
1.13301e-43
1.20048e-43
9.00676e-43
1.07571e-42
4.89346e-44
5.22098e-44
3.98859e-43
4.78028e-43
2.02278e-44
2.17435e-44
1.69434e-43
2.03741e-43
7.99918e-45
8.66845e-45
6.90312e-44
8.32762e-44
3.0247e-45
3.30689e-45
2.69696e-44
3.26381e-44
1.09292e-45
1.20658e-45
1.0102e-44
1.22639e-44
3.76927e-46
4.20656e-46
3.62665e-45
4.41711e-45
1.23574e-46
1.3938e-46
1.24525e-45
1.5232e-45
5.68115e-47
5.00895e-47
4.52633e-46
5.30057e-46
9.67303e-47
9.67303e-47
9.67303e-47
9.67303e-47
1.99998e-80
1.99998e-80
1.99998e-80
1.99998e-80
3.14886e-79
1.20511e-78
1.5153e-78
2.48364e-79
4.08731e-78
1.44352e-77
1.91439e-77
3.27755e-78
5.23803e-77
1.69658e-76
2.39116e-76
4.29933e-77
6.60093e-76
1.957e-75
2.94815e-75
5.57342e-76
8.14498e-75
2.21445e-74
3.57834e-74
7.09689e-75
9.80085e-74
2.45525e-73
4.2612e-73
8.82751e-74
1.14603e-72
2.6628e-72
4.96063e-72
1.06772e-72
1.29847e-71
2.81902e-71
5.62598e-71
1.25142e-71
1.42231e-70
2.90681e-70
6.19711e-70
1.41763e-70
1.50359e-69
2.91304e-69
6.61294e-69
1.54935e-69
1.5321e-68
2.83143e-68
6.82208e-68
1.63164e-68
1.50336e-67
2.6645e-67
6.79285e-67
1.65431e-67
1.41959e-66
2.42384e-66
6.52021e-66
1.61393e-66
1.28937e-65
2.12869e-65
6.02752e-65
1.51452e-65
1.12607e-64
1.80295e-64
5.36266e-64
1.36674e-64
9.45405e-64
1.47147e-63
4.58948e-63
1.18591e-63
7.62893e-63
1.15644e-62
3.7768e-62
9.89329e-63
5.91632e-62
8.74725e-62
2.98772e-61
7.93464e-62
4.40907e-61
6.36529e-61
2.27157e-60
6.11785e-61
3.15737e-60
4.45478e-60
1.65966e-59
4.5347e-60
2.17256e-59
2.99771e-59
1.16513e-58
3.23126e-59
1.4364e-58
1.93924e-58
7.85887e-58
2.21344e-58
9.12484e-58
1.20584e-57
5.09275e-57
1.45758e-57
5.56956e-57
7.20649e-57
3.17055e-56
9.22701e-57
3.26631e-56
4.13908e-56
1.89626e-55
5.61504e-56
1.84049e-55
2.2846e-55
1.08952e-54
3.28476e-55
9.96431e-55
1.2118e-54
6.01367e-54
1.84718e-54
5.18323e-54
6.17683e-54
3.18868e-53
9.98531e-54
2.59056e-53
3.02561e-53
1.62422e-52
5.18869e-53
1.24402e-52
1.42423e-52
7.94776e-52
2.59173e-52
5.73989e-52
6.44288e-52
3.73601e-51
1.24438e-51
2.54463e-51
2.80109e-51
1.68708e-50
5.74295e-51
1.08391e-50
1.17041e-50
7.31861e-50
2.54762e-50
4.43621e-50
4.70044e-50
3.04992e-49
1.08628e-49
1.74456e-49
1.81447e-49
1.221e-48
4.45192e-49
6.59205e-49
6.73288e-49
4.69584e-48
1.75366e-48
2.39342e-48
2.40172e-48
1.73493e-47
6.63943e-48
8.35006e-48
8.23653e-48
6.15775e-47
2.41598e-47
2.79923e-47
2.71584e-47
2.0996e-46
8.44939e-47
9.01721e-47
8.6107e-47
6.87741e-46
2.84002e-46
2.79127e-46
2.62534e-46
2.16417e-45
9.17432e-46
8.30298e-46
7.69816e-46
6.54235e-45
2.84824e-45
2.37346e-45
2.17112e-45
1.90001e-44
8.49812e-45
6.52014e-45
5.89014e-45
5.30104e-44
2.43672e-44
1.72138e-44
1.53728e-44
1.42086e-43
6.71462e-44
4.36752e-44
3.86143e-44
3.65866e-43
1.77816e-43
1.06564e-43
9.331e-44
9.05245e-43
4.52503e-43
2.49731e-43
2.19357e-43
2.15159e-42
1.10741e-42
5.72392e-43
4.97997e-43
4.94126e-42
2.60451e-42
1.28781e-42
1.12158e-42
1.10032e-41
5.98958e-42
2.7966e-42
2.51012e-42
2.36334e-41
1.34542e-41
5.84048e-42
5.3717e-42
4.87862e-41
2.89876e-41
1.17312e-41
1.10032e-41
9.68045e-41
5.99257e-41
2.26637e-41
2.15909e-41
1.84664e-40
1.189e-40
4.21143e-41
4.06122e-41
3.387e-40
2.26476e-40
7.52727e-41
7.32686e-41
5.97369e-40
4.14214e-40
1.29404e-40
1.26839e-40
1.01324e-39
7.27548e-40
2.13966e-40
2.10777e-40
1.65294e-39
1.22742e-39
3.40257e-40
3.3633e-40
2.59369e-39
1.98913e-39
5.2036e-40
5.15452e-40
3.91488e-39
3.0968e-39
7.65249e-40
7.58885e-40
5.68437e-39
4.63201e-39
1.08209e-39
1.07349e-39
7.94007e-39
6.65659e-39
1.47112e-39
1.45914e-39
1.06697e-38
9.19118e-39
1.92268e-39
1.90596e-39
1.37934e-38
1.21937e-38
2.41544e-39
2.39257e-39
1.71544e-38
1.55431e-38
2.91653e-39
2.8864e-39
2.05238e-38
1.90362e-38
3.38429e-39
3.34645e-39
2.36212e-38
2.24e-38
3.77354e-39
3.72851e-39
2.61509e-38
2.53239e-38
4.04258e-39
3.99198e-39
2.78475e-38
2.75047e-38
4.1605e-39
4.1069e-39
2.85213e-38
2.86987e-38
4.113e-39
4.05955e-39
2.80934e-38
2.87655e-38
3.90522e-39
3.85513e-39
2.66102e-38
2.76958e-38
3.56085e-39
3.51687e-39
2.42361e-38
2.56131e-38
3.11769e-39
3.08162e-39
2.12228e-38
2.27505e-38
2.62077e-39
2.59334e-39
1.78657e-38
1.94077e-38
2.1149e-39
2.09578e-39
1.44566e-38
1.58994e-38
1.63819e-39
1.62622e-39
1.12432e-38
1.25079e-38
1.21786e-39
1.21146e-39
8.40315e-39
9.4484e-39
8.68831e-40
8.6631e-40
6.03487e-39
6.85281e-39
5.94728e-40
5.94585e-40
4.16404e-39
4.77186e-39
3.90562e-40
3.91624e-40
2.76013e-39
3.18996e-39
2.4603e-40
2.47501e-40
1.75734e-39
2.04705e-39
1.48644e-40
1.50062e-40
1.07459e-39
1.26092e-39
8.61186e-41
8.72731e-41
6.31005e-40
7.45466e-40
4.78371e-41
4.86783e-41
3.55771e-40
4.22978e-40
2.54724e-41
2.6035e-41
1.92575e-40
2.30315e-40
1.29994e-41
1.33495e-41
1.00061e-40
1.20339e-40
6.35657e-42
6.56102e-42
4.99002e-41
6.03293e-41
2.97757e-42
3.09013e-42
2.38812e-41
2.9017e-41
1.33572e-42
1.39436e-42
1.09663e-41
1.33886e-41
5.73639e-43
6.02618e-43
4.83118e-42
5.92559e-42
2.35758e-43
2.49372e-43
2.04155e-42
2.51531e-42
9.26838e-44
9.87718e-44
8.27392e-43
1.02392e-42
3.48354e-44
3.74299e-44
3.21532e-43
3.9966e-43
1.25093e-44
1.35639e-44
1.19787e-43
1.49557e-43
4.28661e-45
4.6954e-45
4.27681e-44
5.36438e-44
1.39554e-45
1.54265e-45
1.46012e-44
1.84222e-44
6.5938e-46
5.50724e-46
5.30819e-45
6.39919e-45
1.23051e-45
1.23051e-45
1.23051e-45
1.23051e-45
2.77304e-79
2.77304e-79
2.77304e-79
2.77304e-79
4.33406e-78
1.67922e-77
2.12308e-77
3.44836e-78
5.62052e-77
2.02452e-76
2.69612e-76
4.54277e-77
7.1875e-76
2.39193e-75
3.37882e-75
5.93983e-76
9.03171e-75
2.76971e-74
4.17242e-74
7.66962e-75
1.11092e-73
3.14172e-73
5.06458e-73
9.72624e-74
1.3326e-72
3.48724e-72
6.02437e-72
1.20523e-72
1.55378e-71
3.78195e-71
6.99986e-71
1.45302e-71
1.75607e-70
4.00015e-70
7.91996e-70
1.6985e-70
1.91954e-69
4.11827e-69
8.70163e-69
1.92014e-69
2.02585e-68
4.11894e-68
9.26165e-68
2.09537e-68
2.0616e-67
3.99477e-67
9.53106e-67
2.20433e-67
2.02099e-66
3.75078e-66
9.46862e-66
2.23347e-66
1.90711e-65
3.4045e-65
9.06985e-65
2.17818e-65
1.73145e-64
2.98374e-64
8.3691e-64
2.04378e-64
1.51183e-63
2.52237e-63
7.43391e-63
1.8445e-63
1.26922e-62
2.05514e-62
6.3531e-62
1.60083e-62
1.02429e-61
1.61276e-61
5.22169e-61
1.33593e-61
7.94517e-61
1.21833e-60
4.12635e-60