# vtk DataFile Version 2.0
dg(0) output generated by Nextsim
ASCII
DATASET UNSTRUCTURED_GRID
FIELD FieldData 1
TIME 1 1 double
0
POINTS 40000 DOUBLE
0	0	0
0.01	0	0
0.01	0.01	0
0	0.01	0
0.01	0	0
0.02	0	0
0.02	0.01	0
0.01	0.01	0
0.02	0	0
0.03	0	0
0.03	0.01	0
0.02	0.01	0
0.03	0	0
0.04	0	0
0.04	0.01	0
0.03	0.01	0
0.04	0	0
0.05	0	0
0.05	0.01	0
0.04	0.01	0
0.05	0	0
0.06	0	0
0.06	0.01	0
0.05	0.01	0
0.06	0	0
0.07	0	0
0.07	0.01	0
0.06	0.01	0
0.07	0	0
0.08	0	0
0.08	0.01	0
0.07	0.01	0
0.08	0	0
0.09	0	0
0.09	0.01	0
0.08	0.01	0
0.09	0	0
0.1	0	0
0.1	0.01	0
0.09	0.01	0
0.1	0	0
0.11	0	0
0.11	0.01	0
0.1	0.01	0
0.11	0	0
0.12	0	0
0.12	0.01	0
0.11	0.01	0
0.12	0	0
0.13	0	0
0.13	0.01	0
0.12	0.01	0
0.13	0	0
0.14	0	0
0.14	0.01	0
0.13	0.01	0
0.14	0	0
0.15	0	0
0.15	0.01	0
0.14	0.01	0
0.15	0	0
0.16	0	0
0.16	0.01	0
0.15	0.01	0
0.16	0	0
0.17	0	0
0.17	0.01	0
0.16	0.01	0
0.17	0	0
0.18	0	0
0.18	0.01	0
0.17	0.01	0
0.18	0	0
0.19	0	0
0.19	0.01	0
0.18	0.01	0
0.19	0	0
0.2	0	0
0.2	0.01	0
0.19	0.01	0
0.2	0	0
0.21	0	0
0.21	0.01	0
0.2	0.01	0
0.21	0	0
0.22	0	0
0.22	0.01	0
0.21	0.01	0
0.22	0	0
0.23	0	0
0.23	0.01	0
0.22	0.01	0
0.23	0	0
0.24	0	0
0.24	0.01	0
0.23	0.01	0
0.24	0	0
0.25	0	0
0.25	0.01	0
0.24	0.01	0
0.25	0	0
0.26	0	0
0.26	0.01	0
0.25	0.01	0
0.26	0	0
0.27	0	0
0.27	0.01	0
0.26	0.01	0
0.27	0	0
0.28	0	0
0.28	0.01	0
0.27	0.01	0
0.28	0	0
0.29	0	0
0.29	0.01	0
0.28	0.01	0
0.29	0	0
0.3	0	0
0.3	0.01	0
0.29	0.01	0
0.3	0	0
0.31	0	0
0.31	0.01	0
0.3	0.01	0
0.31	0	0
0.32	0	0
0.32	0.01	0
0.31	0.01	0
0.32	0	0
0.33	0	0
0.33	0.01	0
0.32	0.01	0
0.33	0	0
0.34	0	0
0.34	0.01	0
0.33	0.01	0
0.34	0	0
0.35	0	0
0.35	0.01	0
0.34	0.01	0
0.35	0	0
0.36	0	0
0.36	0.01	0
0.35	0.01	0
0.36	0	0
0.37	0	0
0.37	0.01	0
0.36	0.01	0
0.37	0	0
0.38	0	0
0.38	0.01	0
0.37	0.01	0
0.38	0	0
0.39	0	0
0.39	0.01	0
0.38	0.01	0
0.39	0	0
0.4	0	0
0.4	0.01	0
0.39	0.01	0
0.4	0	0
0.41	0	0
0.41	0.01	0
0.4	0.01	0
0.41	0	0
0.42	0	0
0.42	0.01	0
0.41	0.01	0
0.42	0	0
0.43	0	0
0.43	0.01	0
0.42	0.01	0
0.43	0	0
0.44	0	0
0.44	0.01	0
0.43	0.01	0
0.44	0	0
0.45	0	0
0.45	0.01	0
0.44	0.01	0
0.45	0	0
0.46	0	0
0.46	0.01	0
0.45	0.01	0
0.46	0	0
0.47	0	0
0.47	0.01	0
0.46	0.01	0
0.47	0	0
0.48	0	0
0.48	0.01	0
0.47	0.01	0
0.48	0	0
0.49	0	0
0.49	0.01	0
0.48	0.01	0
0.49	0	0
0.5	0	0
0.5	0.01	0
0.49	0.01	0
0.5	0	0
0.51	0	0
0.51	0.01	0
0.5	0.01	0
0.51	0	0
0.52	0	0
0.52	0.01	0
0.51	0.01	0
0.52	0	0
0.53	0	0
0.53	0.01	0
0.52	0.01	0
0.53	0	0
0.54	0	0
0.54	0.01	0
0.53	0.01	0
0.54	0	0
0.55	0	0
0.55	0.01	0
0.54	0.01	0
0.55	0	0
0.56	0	0
0.56	0.01	0
0.55	0.01	0
0.56	0	0
0.57	0	0
0.57	0.01	0
0.56	0.01	0
0.57	0	0
0.58	0	0
0.58	0.01	0
0.57	0.01	0
0.58	0	0
0.59	0	0
0.59	0.01	0
0.58	0.01	0
0.59	0	0
0.6	0	0
0.6	0.01	0
0.59	0.01	0
0.6	0	0
0.61	0	0
0.61	0.01	0
0.6	0.01	0
0.61	0	0
0.62	0	0
0.62	0.01	0
0.61	0.01	0
0.62	0	0
0.63	0	0
0.63	0.01	0
0.62	0.01	0
0.63	0	0
0.64	0	0
0.64	0.01	0
0.63	0.01	0
0.64	0	0
0.65	0	0
0.65	0.01	0
0.64	0.01	0
0.65	0	0
0.66	0	0
0.66	0.01	0
0.65	0.01	0
0.66	0	0
0.67	0	0
0.67	0.01	0
0.66	0.01	0
0.67	0	0
0.68	0	0
0.68	0.01	0
0.67	0.01	0
0.68	0	0
0.69	0	0
0.69	0.01	0
0.68	0.01	0
0.69	0	0
0.7	0	0
0.7	0.01	0
0.69	0.01	0
0.7	0	0
0.71	0	0
0.71	0.01	0
0.7	0.01	0
0.71	0	0
0.72	0	0
0.72	0.01	0
0.71	0.01	0
0.72	0	0
0.73	0	0
0.73	0.01	0
0.72	0.01	0
0.73	0	0
0.74	0	0
0.74	0.01	0
0.73	0.01	0
0.74	0	0
0.75	0	0
0.75	0.01	0
0.74	0.01	0
0.75	0	0
0.76	0	0
0.76	0.01	0
0.75	0.01	0
0.76	0	0
0.77	0	0
0.77	0.01	0
0.76	0.01	0
0.77	0	0
0.78	0	0
0.78	0.01	0
0.77	0.01	0
0.78	0	0
0.79	0	0
0.79	0.01	0
0.78	0.01	0
0.79	0	0
0.8	0	0
0.8	0.01	0
0.79	0.01	0
0.8	0	0
0.81	0	0
0.81	0.01	0
0.8	0.01	0
0.81	0	0
0.82	0	0
0.82	0.01	0
0.81	0.01	0
0.82	0	0
0.83	0	0
0.83	0.01	0
0.82	0.01	0
0.83	0	0
0.84	0	0
0.84	0.01	0
0.83	0.01	0
0.84	0	0
0.85	0	0
0.85	0.01	0
0.84	0.01	0
0.85	0	0
0.86	0	0
0.86	0.01	0
0.85	0.01	0
0.86	0	0
0.87	0	0
0.87	0.01	0
0.86	0.01	0
0.87	0	0
0.88	0	0
0.88	0.01	0
0.87	0.01	0
0.88	0	0
0.89	0	0
0.89	0.01	0
0.88	0.01	0
0.89	0	0
0.9	0	0
0.9	0.01	0
0.89	0.01	0
0.9	0	0
0.91	0	0
0.91	0.01	0
0.9	0.01	0
0.91	0	0
0.92	0	0
0.92	0.01	0
0.91	0.01	0
0.92	0	0
0.93	0	0
0.93	0.01	0
0.92	0.01	0
0.93	0	0
0.94	0	0
0.94	0.01	0
0.93	0.01	0
0.94	0	0
0.95	0	0
0.95	0.01	0
0.94	0.01	0
0.95	0	0
0.96	0	0
0.96	0.01	0
0.95	0.01	0
0.96	0	0
0.97	0	0
0.97	0.01	0
0.96	0.01	0
0.97	0	0
0.98	0	0
0.98	0.01	0
0.97	0.01	0
0.98	0	0
0.99	0	0
0.99	0.01	0
0.98	0.01	0
0.99	0	0
1	0	0
1	0.01	0
0.99	0.01	0
0	0.01	0
0.01	0.01	0
0.01	0.02	0
0	0.02	0
0.01	0.01	0
0.02	0.01	0
0.02	0.02	0
0.01	0.02	0
0.02	0.01	0
0.03	0.01	0
0.03	0.02	0
0.02	0.02	0
0.03	0.01	0
0.04	0.01	0
0.04	0.02	0
0.03	0.02	0
0.04	0.01	0
0.05	0.01	0
0.05	0.02	0
0.04	0.02	0
0.05	0.01	0
0.06	0.01	0
0.06	0.02	0
0.05	0.02	0
0.06	0.01	0
0.07	0.01	0
0.07	0.02	0
0.06	0.02	0
0.07	0.01	0
0.08	0.01	0
0.08	0.02	0
0.07	0.02	0
0.08	0.01	0
0.09	0.01	0
0.09	0.02	0
0.08	0.02	0
0.09	0.01	0
0.1	0.01	0
0.1	0.02	0
0.09	0.02	0
0.1	0.01	0
0.11	0.01	0
0.11	0.02	0
0.1	0.02	0
0.11	0.01	0
0.12	0.01	0
0.12	0.02	0
0.11	0.02	0
0.12	0.01	0
0.13	0.01	0
0.13	0.02	0
0.12	0.02	0
0.13	0.01	0
0.14	0.01	0
0.14	0.02	0
0.13	0.02	0
0.14	0.01	0
0.15	0.01	0
0.15	0.02	0
0.14	0.02	0
0.15	0.01	0
0.16	0.01	0
0.16	0.02	0
0.15	0.02	0
0.16	0.01	0
0.17	0.01	0
0.17	0.02	0
0.16	0.02	0
0.17	0.01	0
0.18	0.01	0
0.18	0.02	0
0.17	0.02	0
0.18	0.01	0
0.19	0.01	0
0.19	0.02	0
0.18	0.02	0
0.19	0.01	0
0.2	0.01	0
0.2	0.02	0
0.19	0.02	0
0.2	0.01	0
0.21	0.01	0
0.21	0.02	0
0.2	0.02	0
0.21	0.01	0
0.22	0.01	0
0.22	0.02	0
0.21	0.02	0
0.22	0.01	0
0.23	0.01	0
0.23	0.02	0
0.22	0.02	0
0.23	0.01	0
0.24	0.01	0
0.24	0.02	0
0.23	0.02	0
0.24	0.01	0
0.25	0.01	0
0.25	0.02	0
0.24	0.02	0
0.25	0.01	0
0.26	0.01	0
0.26	0.02	0
0.25	0.02	0
0.26	0.01	0
0.27	0.01	0
0.27	0.02	0
0.26	0.02	0
0.27	0.01	0
0.28	0.01	0
0.28	0.02	0
0.27	0.02	0
0.28	0.01	0
0.29	0.01	0
0.29	0.02	0
0.28	0.02	0
0.29	0.01	0
0.3	0.01	0
0.3	0.02	0
0.29	0.02	0
0.3	0.01	0
0.31	0.01	0
0.31	0.02	0
0.3	0.02	0
0.31	0.01	0
0.32	0.01	0
0.32	0.02	0
0.31	0.02	0
0.32	0.01	0
0.33	0.01	0
0.33	0.02	0
0.32	0.02	0
0.33	0.01	0
0.34	0.01	0
0.34	0.02	0
0.33	0.02	0
0.34	0.01	0
0.35	0.01	0
0.35	0.02	0
0.34	0.02	0
0.35	0.01	0
0.36	0.01	0
0.36	0.02	0
0.35	0.02	0
0.36	0.01	0
0.37	0.01	0
0.37	0.02	0
0.36	0.02	0
0.37	0.01	0
0.38	0.01	0
0.38	0.02	0
0.37	0.02	0
0.38	0.01	0
0.39	0.01	0
0.39	0.02	0
0.38	0.02	0
0.39	0.01	0
0.4	0.01	0
0.4	0.02	0
0.39	0.02	0
0.4	0.01	0
0.41	0.01	0
0.41	0.02	0
0.4	0.02	0
0.41	0.01	0
0.42	0.01	0
0.42	0.02	0
0.41	0.02	0
0.42	0.01	0
0.43	0.01	0
0.43	0.02	0
0.42	0.02	0
0.43	0.01	0
0.44	0.01	0
0.44	0.02	0
0.43	0.02	0
0.44	0.01	0
0.45	0.01	0
0.45	0.02	0
0.44	0.02	0
0.45	0.01	0
0.46	0.01	0
0.46	0.02	0
0.45	0.02	0
0.46	0.01	0
0.47	0.01	0
0.47	0.02	0
0.46	0.02	0
0.47	0.01	0
0.48	0.01	0
0.48	0.02	0
0.47	0.02	0
0.48	0.01	0
0.49	0.01	0
0.49	0.02	0
0.48	0.02	0
0.49	0.01	0
0.5	0.01	0
0.5	0.02	0
0.49	0.02	0
0.5	0.01	0
0.51	0.01	0
0.51	0.02	0
0.5	0.02	0
0.51	0.01	0
0.52	0.01	0
0.52	0.02	0
0.51	0.02	0
0.52	0.01	0
0.53	0.01	0
0.53	0.02	0
0.52	0.02	0
0.53	0.01	0
0.54	0.01	0
0.54	0.02	0
0.53	0.02	0
0.54	0.01	0
0.55	0.01	0
0.55	0.02	0
0.54	0.02	0
0.55	0.01	0
0.56	0.01	0
0.56	0.02	0
0.55	0.02	0
0.56	0.01	0
0.57	0.01	0
0.57	0.02	0
0.56	0.02	0
0.57	0.01	0
0.58	0.01	0
0.58	0.02	0
0.57	0.02	0
0.58	0.01	0
0.59	0.01	0
0.59	0.02	0
0.58	0.02	0
0.59	0.01	0
0.6	0.01	0
0.6	0.02	0
0.59	0.02	0
0.6	0.01	0
0.61	0.01	0
0.61	0.02	0
0.6	0.02	0
0.61	0.01	0
0.62	0.01	0
0.62	0.02	0
0.61	0.02	0
0.62	0.01	0
0.63	0.01	0
0.63	0.02	0
0.62	0.02	0
0.63	0.01	0
0.64	0.01	0
0.64	0.02	0
0.63	0.02	0
0.64	0.01	0
0.65	0.01	0
0.65	0.02	0
0.64	0.02	0
0.65	0.01	0
0.66	0.01	0
0.66	0.02	0
0.65	0.02	0
0.66	0.01	0
0.67	0.01	0
0.67	0.02	0
0.66	0.02	0
0.67	0.01	0
0.68	0.01	0
0.68	0.02	0
0.67	0.02	0
0.68	0.01	0
0.69	0.01	0
0.69	0.02	0
0.68	0.02	0
0.69	0.01	0
0.7	0.01	0
0.7	0.02	0
0.69	0.02	0
0.7	0.01	0
0.71	0.01	0
0.71	0.02	0
0.7	0.02	0
0.71	0.01	0
0.72	0.01	0
0.72	0.02	0
0.71	0.02	0
0.72	0.01	0
0.73	0.01	0
0.73	0.02	0
0.72	0.02	0
0.73	0.01	0
0.74	0.01	0
0.74	0.02	0
0.73	0.02	0
0.74	0.01	0
0.75	0.01	0
0.75	0.02	0
0.74	0.02	0
0.75	0.01	0
0.76	0.01	0
0.76	0.02	0
0.75	0.02	0
0.76	0.01	0
0.77	0.01	0
0.77	0.02	0
0.76	0.02	0
0.77	0.01	0
0.78	0.01	0
0.78	0.02	0
0.77	0.02	0
0.78	0.01	0
0.79	0.01	0
0.79	0.02	0
0.78	0.02	0
0.79	0.01	0
0.8	0.01	0
0.8	0.02	0
0.79	0.02	0
0.8	0.01	0
0.81	0.01	0
0.81	0.02	0
0.8	0.02	0
0.81	0.01	0
0.82	0.01	0
0.82	0.02	0
0.81	0.02	0
0.82	0.01	0
0.83	0.01	0
0.83	0.02	0
0.82	0.02	0
0.83	0.01	0
0.84	0.01	0
0.84	0.02	0
0.83	0.02	0
0.84	0.01	0
0.85	0.01	0
0.85	0.02	0
0.84	0.02	0
0.85	0.01	0
0.86	0.01	0
0.86	0.02	0
0.85	0.02	0
0.86	0.01	0
0.87	0.01	0
0.87	0.02	0
0.86	0.02	0
0.87	0.01	0
0.88	0.01	0
0.88	0.02	0
0.87	0.02	0
0.88	0.01	0
0.89	0.01	0
0.89	0.02	0
0.88	0.02	0
0.89	0.01	0
0.9	0.01	0
0.9	0.02	0
0.89	0.02	0
0.9	0.01	0
0.91	0.01	0
0.91	0.02	0
0.9	0.02	0
0.91	0.01	0
0.92	0.01	0
0.92	0.02	0
0.91	0.02	0
0.92	0.01	0
0.93	0.01	0
0.93	0.02	0
0.92	0.02	0
0.93	0.01	0
0.94	0.01	0
0.94	0.02	0
0.93	0.02	0
0.94	0.01	0
0.95	0.01	0
0.95	0.02	0
0.94	0.02	0
0.95	0.01	0
0.96	0.01	0
0.96	0.02	0
0.95	0.02	0
0.96	0.01	0
0.97	0.01	0
0.97	0.02	0
0.96	0.02	0
0.97	0.01	0
0.98	0.01	0
0.98	0.02	0
0.97	0.02	0
0.98	0.01	0
0.99	0.01	0
0.99	0.02	0
0.98	0.02	0
0.99	0.01	0
1	0.01	0
1	0.02	0
0.99	0.02	0
0	0.02	0
0.01	0.02	0
0.01	0.03	0
0	0.03	0
0.01	0.02	0
0.02	0.02	0
0.02	0.03	0
0.01	0.03	0
0.02	0.02	0
0.03	0.02	0
0.03	0.03	0
0.02	0.03	0
0.03	0.02	0
0.04	0.02	0
0.04	0.03	0
0.03	0.03	0
0.04	0.02	0
0.05	0.02	0
0.05	0.03	0
0.04	0.03	0
0.05	0.02	0
0.06	0.02	0
0.06	0.03	0
0.05	0.03	0
0.06	0.02	0
0.07	0.02	0
0.07	0.03	0
0.06	0.03	0
0.07	0.02	0
0.08	0.02	0
0.08	0.03	0
0.07	0.03	0
0.08	0.02	0
0.09	0.02	0
0.09	0.03	0
0.08	0.03	0
0.09	0.02	0
0.1	0.02	0
0.1	0.03	0
0.09	0.03	0
0.1	0.02	0
0.11	0.02	0
0.11	0.03	0
0.1	0.03	0
0.11	0.02	0
0.12	0.02	0
0.12	0.03	0
0.11	0.03	0
0.12	0.02	0
0.13	0.02	0
0.13	0.03	0
0.12	0.03	0
0.13	0.02	0
0.14	0.02	0
0.14	0.03	0
0.13	0.03	0
0.14	0.02	0
0.15	0.02	0
0.15	0.03	0
0.14	0.03	0
0.15	0.02	0
0.16	0.02	0
0.16	0.03	0
0.15	0.03	0
0.16	0.02	0
0.17	0.02	0
0.17	0.03	0
0.16	0.03	0
0.17	0.02	0
0.18	0.02	0
0.18	0.03	0
0.17	0.03	0
0.18	0.02	0
0.19	0.02	0
0.19	0.03	0
0.18	0.03	0
0.19	0.02	0
0.2	0.02	0
0.2	0.03	0
[...]
POINT_DATA 40000
SCALARS dg0 DOUBLE 
LOOKUP_TABLE default
1.13061e-80
1.13061e-80
1.13061e-80
1.13061e-80
2.2491e-79
2.2491e-79
2.2491e-79
2.2491e-79
2.40864e-78
2.40864e-78
2.40864e-78
2.40864e-78
2.50423e-77
2.50423e-77
2.50423e-77
2.50423e-77
2.52712e-76
2.52712e-76
2.52712e-76
2.52712e-76
2.47478e-75
2.47478e-75
2.47478e-75
2.47478e-75
2.35136e-74
2.35136e-74
2.35136e-74
2.35136e-74
2.16713e-73
2.16713e-73
2.16713e-73
2.16713e-73
1.93706e-72
1.93706e-72
1.93706e-72
1.93706e-72
1.67883e-71
1.67883e-71
1.67883e-71
1.67883e-71
1.41055e-70
1.41055e-70
1.41055e-70
1.41055e-70
1.14869e-69
1.14869e-69
1.14869e-69
1.14869e-69
9.06479e-69
9.06479e-69
9.06479e-69
9.06479e-69
6.93059e-68
6.93059e-68
6.93059e-68
6.93059e-68
5.13279e-67
5.13279e-67
5.13279e-67
5.13279e-67
3.68148e-66
3.68148e-66
3.68148e-66
3.68148e-66
2.55679e-65
2.55679e-65
2.55679e-65
2.55679e-65
1.71903e-64
1.71903e-64
1.71903e-64
1.71903e-64
1.11869e-63
1.11869e-63
1.11869e-63
1.11869e-63
7.04513e-63
7.04513e-63
7.04513e-63
7.04513e-63
4.29281e-62
4.29281e-62
4.29281e-62
4.29281e-62
2.53039e-61
2.53039e-61
2.53039e-61
2.53039e-61
1.44261e-60
1.44261e-60
1.44261e-60
1.44261e-60
7.95331e-60
7.95331e-60
7.95331e-60
7.95331e-60
4.23943e-59
4.23943e-59
4.23943e-59
4.23943e-59
2.1845e-58
2.1845e-58
2.1845e-58
2.1845e-58
1.08795e-57
1.08795e-57
1.08795e-57
1.08795e-57
5.23607e-57
5.23607e-57
5.23607e-57
5.23607e-57
2.43483e-56
2.43483e-56
2.43483e-56
2.43483e-56
1.09377e-55
1.09377e-55
1.09377e-55
1.09377e-55
4.74587e-55
4.74587e-55
4.74587e-55
4.74587e-55
1.98867e-54
1.98867e-54
1.98867e-54
1.98867e-54
8.04647e-54
8.04647e-54
8.04647e-54
8.04647e-54
3.14323e-53
3.14323e-53
3.14323e-53
3.14323e-53
1.18526e-52
1.18526e-52
1.18526e-52
1.18526e-52
4.31373e-52
4.31373e-52
4.31373e-52
4.31373e-52
1.51508e-51
1.51508e-51
1.51508e-51
1.51508e-51
5.13451e-51
5.13451e-51
5.13451e-51
5.13451e-51
1.67876e-50
1.67876e-50
1.67876e-50
1.67876e-50
5.29475e-50
5.29475e-50
5.29475e-50
5.29475e-50
1.6107e-49
1.6107e-49
1.6107e-49
1.6107e-49
4.72546e-49
4.72546e-49
4.72546e-49
4.72546e-49
1.33685e-48
1.33685e-48
1.33685e-48
1.33685e-48
3.64665e-48
3.64665e-48
3.64665e-48
3.64665e-48
9.59122e-48
9.59122e-48
9.59122e-48
9.59122e-48
2.43295e-47
2.43295e-47
2.43295e-47
2.43295e-47
5.95815e-47
5.95815e-47
5.95815e-47
5.95815e-47
1.41282e-46
1.41282e-46
1.41282e-46
1.41282e-46
3.26713e-46
3.26713e-46
3.26713e-46
3.26713e-46
7.47831e-46
7.47831e-46
7.47831e-46
7.47831e-46
1.7489e-45
1.7489e-45
1.7489e-45
1.7489e-45
4.7896e-45
4.7896e-45
4.7896e-45
4.7896e-45
3.84417e-44
3.84417e-44
3.84417e-44
3.84417e-44
1.0533e-42
1.0533e-42
1.0533e-42
1.0533e-42
3.23845e-41
3.23845e-41
3.23845e-41
3.23845e-41
8.84777e-40
8.84777e-40
8.84777e-40
8.84777e-40
2.0864e-38
2.0864e-38
2.0864e-38
2.0864e-38
4.17416e-37
4.17416e-37
4.17416e-37
4.17416e-37
6.94004e-36
6.94004e-36
6.94004e-36
6.94004e-36
9.33376e-35
9.33376e-35
9.33376e-35
9.33376e-35
9.7991e-34
9.7991e-34
9.7991e-34
9.7991e-34
7.67552e-33
7.67552e-33
7.67552e-33
7.67552e-33
4.29288e-32
4.29288e-32
4.29288e-32
4.29288e-32
1.75509e-31
1.75509e-31
1.75509e-31
1.75509e-31
6.40026e-31
6.40026e-31
6.40026e-31
6.40026e-31
2.01035e-30
2.01035e-30
2.01035e-30
2.01035e-30
4.90154e-30
4.90154e-30
4.90154e-30
4.90154e-30
6.97197e-30
6.97197e-30
6.97197e-30
6.97197e-30
6.4871e-31
6.4871e-31
6.4871e-31
6.4871e-31
8.90931e-31
8.90931e-31
8.90931e-31
8.90931e-31
7.91427e-32
7.91427e-32
7.91427e-32
7.91427e-32
1.05039e-31
1.05039e-31
1.05039e-31
1.05039e-31
4.35492e-33
4.35492e-33
4.35492e-33
4.35492e-33
2.69883e-36
2.69883e-36
2.69883e-36
2.69883e-36
1.66785e-39
1.66785e-39
1.66785e-39
1.66785e-39
1.23226e-40
1.23226e-40
1.23226e-40
1.23226e-40
1.15536e-40
1.15536e-40
1.15536e-40
1.15536e-40
1.04035e-40
1.04035e-40
1.04035e-40
1.04035e-40
8.99651e-41
8.99651e-41
8.99651e-41
8.99651e-41
7.47135e-41
7.47135e-41
7.47135e-41
7.47135e-41
5.9586e-41
5.9586e-41
5.9586e-41
5.9586e-41
4.56355e-41
4.56355e-41
4.56355e-41
4.56355e-41
3.35635e-41
3.35635e-41
3.35635e-41
3.35635e-41
2.37046e-41
2.37046e-41
2.37046e-41
2.37046e-41
1.60765e-41
1.60765e-41
1.60765e-41
1.60765e-41
1.04698e-41
1.04698e-41
1.04698e-41
1.04698e-41
6.54743e-42
6.54743e-42
6.54743e-42
6.54743e-42
3.93171e-42
3.93171e-42
3.93171e-42
3.93171e-42
2.26708e-42
2.26708e-42
2.26708e-42
2.26708e-42
1.25522e-42
1.25522e-42
1.25522e-42
1.25522e-42
6.67334e-43
6.67334e-43
6.67334e-43
6.67334e-43
3.40665e-43
3.40665e-43
3.40665e-43
3.40665e-43
1.66983e-43
1.66983e-43
1.66983e-43
1.66983e-43
7.85914e-44
7.85914e-44
7.85914e-44
7.85914e-44
3.55166e-44
3.55166e-44
3.55166e-44
3.55166e-44
1.54111e-44
1.54111e-44
1.54111e-44
1.54111e-44
6.41974e-45
6.41974e-45
6.41974e-45
6.41974e-45
2.56195e-45
2.56195e-45
2.56195e-45
2.56195e-45
9.58143e-46
9.58143e-46
9.58143e-46
9.58143e-46
2.81473e-46
2.81473e-46
2.81473e-46
2.81473e-46
1.5833e-79
1.5833e-79
1.5833e-79
1.5833e-79
3.157e-78
3.157e-78
3.157e-78
3.157e-78
3.3953e-77
3.3953e-77
3.3953e-77
3.3953e-77
3.54465e-76
3.54465e-76
3.54465e-76
3.54465e-76
3.59147e-75
3.59147e-75
3.59147e-75
3.59147e-75
3.5309e-74
3.5309e-74
3.5309e-74
3.5309e-74
3.36764e-73
3.36764e-73
3.36764e-73
3.36764e-73
3.11531e-72
3.11531e-72
3.11531e-72
3.11531e-72
2.79464e-71
2.79464e-71
2.79464e-71
2.79464e-71
2.43059e-70
2.43059e-70
2.43059e-70
2.43059e-70
2.04913e-69
2.04913e-69
2.04913e-69
2.04913e-69
1.67423e-68
1.67423e-68
1.67423e-68
1.67423e-68
1.32543e-67
1.32543e-67
1.32543e-67
1.32543e-67
1.01651e-66
1.01651e-66
1.01651e-66
1.01651e-66
7.55086e-66
7.55086e-66
7.55086e-66
7.55086e-66
5.43154e-65
5.43154e-65
5.43154e-65
5.43154e-65
3.78276e-64
3.78276e-64
3.78276e-64
3.78276e-64
2.55018e-63
2.55018e-63
2.55018e-63
2.55018e-63
1.66389e-62
1.66389e-62
1.66389e-62
1.66389e-62
1.05049e-61
1.05049e-61
1.05049e-61
1.05049e-61
6.41644e-61
6.41644e-61
6.41644e-61
6.41644e-61
3.79095e-60
3.79095e-60
3.79095e-60
3.79095e-60
2.16609e-59
2.16609e-59
2.16609e-59
2.16609e-59
1.19675e-58
1.19675e-58
1.19675e-58
1.19675e-58
6.39225e-58
6.39225e-58
6.39225e-58
6.39225e-58
3.30028e-57
3.30028e-57
3.30028e-57
3.30028e-57
1.64673e-56
1.64673e-56
1.64673e-56
1.64673e-56
7.93954e-56
7.93954e-56
7.93954e-56
7.93954e-56
3.69828e-55
3.69828e-55
3.69828e-55
3.69828e-55
1.66405e-54
1.66405e-54
1.66405e-54
1.66405e-54
7.23144e-54
7.23144e-54
7.23144e-54
7.23144e-54
3.03466e-53
3.03466e-53
3.03466e-53
3.03466e-53
1.22957e-52
1.22957e-52
1.22957e-52
1.22957e-52
4.80946e-52
4.80946e-52
4.80946e-52
4.80946e-52
1.81581e-51
1.81581e-51
1.81581e-51
1.81581e-51
6.61634e-51
6.61634e-51
6.61634e-51
6.61634e-51
2.32635e-50
2.32635e-50
2.32635e-50
2.32635e-50
7.89199e-50
7.89199e-50
7.89199e-50
7.89199e-50
2.58281e-49
2.58281e-49
2.58281e-49
2.58281e-49
8.15337e-49
8.15337e-49
8.15337e-49
8.15337e-49
2.48237e-48
2.48237e-48
2.48237e-48
2.48237e-48
7.28837e-48
7.28837e-48
7.28837e-48
7.28837e-48
2.0634e-47
2.0634e-47
2.0634e-47
2.0634e-47
5.63253e-47
5.63253e-47
5.63253e-47
5.63253e-47
1.48271e-46
1.48271e-46
1.48271e-46
1.48271e-46
3.76681e-46
3.76681e-46
3.76681e-46
3.76681e-46
9.25881e-46
9.25881e-46
9.25881e-46
9.25881e-46
2.21711e-45
2.21711e-45
2.21711e-45
2.21711e-45
5.25263e-45
5.25263e-45
5.25263e-45
5.25263e-45
1.26778e-44
1.26778e-44
1.26778e-44
1.26778e-44
3.4037e-44
3.4037e-44
3.4037e-44
3.4037e-44
1.80226e-43
1.80226e-43
1.80226e-43
1.80226e-43
4.07724e-42
4.07724e-42
4.07724e-42
4.07724e-42
1.34782e-40
1.34782e-40
1.34782e-40
1.34782e-40
4.10162e-39
4.10162e-39
4.10162e-39
4.10162e-39
1.09285e-37
1.09285e-37
1.09285e-37
1.09285e-37
2.51017e-36
2.51017e-36
2.51017e-36
2.51017e-36
4.88977e-35
4.88977e-35
4.88977e-35
4.88977e-35
7.91168e-34
7.91168e-34
7.91168e-34
7.91168e-34
1.03449e-32
1.03449e-32
1.03449e-32
1.03449e-32
1.05371e-31
1.05371e-31
1.05371e-31
1.05371e-31
7.97176e-31
7.97176e-31
7.97176e-31
7.97176e-31
4.26411e-30
4.26411e-30
4.26411e-30
4.26411e-30
1.6418e-29
1.6418e-29
1.6418e-29
1.6418e-29
5.66941e-29
5.66941e-29
5.66941e-29
5.66941e-29
1.69796e-28
1.69796e-28
1.69796e-28
1.69796e-28
3.97945e-28
3.97945e-28
3.97945e-28
3.97945e-28
5.48547e-28
5.48547e-28
5.48547e-28
5.48547e-28
5.0244e-29
5.0244e-29
5.0244e-29
5.0244e-29
6.70723e-29
6.70723e-29
6.70723e-29
6.70723e-29
5.89767e-30
5.89767e-30
5.89767e-30
5.89767e-30
7.62716e-30
7.62716e-30
7.62716e-30
7.62716e-30
3.18824e-31
3.18824e-31
3.18824e-31
3.18824e-31
2.0886e-34
2.0886e-34
2.0886e-34
2.0886e-34
1.28586e-37
1.28586e-37
1.28586e-37
1.28586e-37
2.64111e-39
2.64111e-39
2.64111e-39
2.64111e-39
2.46715e-39
2.46715e-39
2.46715e-39
2.46715e-39
2.21345e-39
2.21345e-39
2.21345e-39
2.21345e-39
1.90721e-39
1.90721e-39
1.90721e-39
1.90721e-39
1.57824e-39
1.57824e-39
1.57824e-39
1.57824e-39
1.25426e-39
1.25426e-39
1.25426e-39
1.25426e-39
9.57273e-40
9.57273e-40
9.57273e-40
9.57273e-40
7.01628e-40
7.01628e-40
7.01628e-40
7.01628e-40
4.9385e-40
4.9385e-40
4.9385e-40
4.9385e-40
3.33807e-40
3.33807e-40
3.33807e-40
3.33807e-40
2.16672e-40
2.16672e-40
2.16672e-40
2.16672e-40
1.35054e-40
1.35054e-40
1.35054e-40
1.35054e-40
8.08372e-41
8.08372e-41
8.08372e-41
8.08372e-41
4.64627e-41
4.64627e-41
4.64627e-41
4.64627e-41
2.56439e-41
2.56439e-41
2.56439e-41
2.56439e-41
1.35908e-41
1.35908e-41
1.35908e-41
1.35908e-41
6.91649e-42
6.91649e-42
6.91649e-42
6.91649e-42
3.37988e-42
3.37988e-42
3.37988e-42
3.37988e-42
1.58595e-42
1.58595e-42
1.58595e-42
1.58595e-42
7.14572e-43
7.14572e-43
7.14572e-43
7.14572e-43
3.09147e-43
3.09147e-43
3.09147e-43
3.09147e-43
1.28405e-43
1.28405e-43
1.28405e-43
1.28405e-43
5.10988e-44
5.10988e-44
5.10988e-44
5.10988e-44
1.90668e-44
1.90668e-44
1.90668e-44
1.90668e-44
5.59927e-45
5.59927e-45
5.59927e-45
5.59927e-45
2.02557e-78
2.02557e-78
2.02557e-78
2.02557e-78
4.05083e-77
4.05083e-77
4.05083e-77
4.05083e-77
4.37966e-76
4.37966e-76
4.37966e-76
4.37966e-76
4.59604e-75
4.59604e-75
4.59604e-75
4.59604e-75
4.68042e-74
4.68042e-74
4.68042e-74
4.68042e-74
4.62439e-73
4.62439e-73
4.62439e-73
4.62439e-73
4.43204e-72
4.43204e-72
4.43204e-72
4.43204e-72
4.1195e-71
4.1195e-71
4.1195e-71
4.1195e-71
3.71269e-70
3.71269e-70
3.71269e-70
3.71269e-70
3.24376e-69
3.24376e-69
3.24376e-69
3.24376e-69
2.74685e-68
2.74685e-68
2.74685e-68
2.74685e-68
2.25405e-67
2.25405e-67
2.25405e-67
2.25405e-67
1.79203e-66
1.79203e-66
1.79203e-66
1.79203e-66
1.38006e-65
1.38006e-65
1.38006e-65
1.38006e-65
1.02928e-64
1.02928e-64
1.02928e-64
1.02928e-64
7.43306e-64
7.43306e-64
7.43306e-64
7.43306e-64
5.19659e-63
5.19659e-63
5.19659e-63
5.19659e-63
3.51644e-62
3.51644e-62
3.51644e-62
3.51644e-62
2.30271e-61
2.30271e-61
2.30271e-61
2.30271e-61
1.45898e-60
1.45898e-60
1.45898e-60
1.45898e-60
8.94226e-60
8.94226e-60
8.94226e-60
8.94226e-60
5.30102e-59
5.30102e-59
5.30102e-59
5.30102e-59
3.03884e-58
3.03884e-58
3.03884e-58
3.03884e-58
1.68428e-57
1.68428e-57
1.68428e-57
1.68428e-57
9.02412e-57
9.02412e-57
9.02412e-57
9.02412e-57
4.6731e-56
4.6731e-56
4.6731e-56
4.6731e-56
2.33853e-55
2.33853e-55
2.33853e-55
2.33853e-55
1.13069e-54
1.13069e-54
1.13069e-54
1.13069e-54
5.28132e-54
5.28132e-54
5.28132e-54
5.28132e-54
2.38269e-53
2.38269e-53
2.38269e-53
2.38269e-53
1.03812e-52
1.03812e-52
1.03812e-52
1.03812e-52
4.36741e-52
4.36741e-52
4.36741e-52
4.36741e-52
1.77389e-51
1.77389e-51
1.77389e-51
1.77389e-51
6.95491e-51
6.95491e-51
6.95491e-51
6.95491e-51
2.63184e-50
2.63184e-50
2.63184e-50
2.63184e-50
9.61096e-50
9.61096e-50
9.61096e-50
9.61096e-50
3.38654e-49
3.38654e-49
3.38654e-49
3.38654e-49
1.15125e-48
1.15125e-48
1.15125e-48
1.15125e-48
3.77525e-48
3.77525e-48
3.77525e-48
3.77525e-48
1.19409e-47
1.19409e-47
1.19409e-47
1.19409e-47
3.64236e-47
3.64236e-47
3.64236e-47
3.64236e-47
1.07136e-46
1.07136e-46
1.07136e-46
1.07136e-46
3.03843e-46
3.03843e-46
3.03843e-46
3.03843e-46
8.30811e-46
8.30811e-46
8.30811e-46
8.30811e-46
2.1905e-45
2.1905e-45
2.1905e-45
2.1905e-45
5.57268e-45
5.57268e-45
5.57268e-45
5.57268e-45
1.37109e-44
1.37109e-44
1.37109e-44
1.37109e-44
3.28356e-44
3.28356e-44
3.28356e-44
3.28356e-44
7.77687e-44
7.77687e-44
7.77687e-44
7.77687e-44
1.9221e-43
1.9221e-43
1.9221e-43
1.9221e-43
7.52384e-43
7.52384e-43
7.52384e-43
7.52384e-43
1.33437e-41
1.33437e-41
1.33437e-41
1.33437e-41
4.63254e-40
4.63254e-40
4.63254e-40
4.63254e-40
1.54926e-38
1.54926e-38
1.54926e-38
1.54926e-38
4.5938e-37
4.5938e-37
4.5938e-37
4.5938e-37
1.18934e-35
1.18934e-35
1.18934e-35
1.18934e-35
2.6534e-34
2.6534e-34
2.6534e-34
2.6534e-34
5.01887e-33
5.01887e-33
5.01887e-33
5.01887e-33
7.88114e-32
7.88114e-32
7.88114e-32
7.88114e-32
9.99148e-31
9.99148e-31
9.99148e-31
9.99148e-31
9.84743e-30
9.84743e-30
9.84743e-30
9.84743e-30
7.17491e-29
7.17491e-29
7.17491e-29
7.17491e-29
3.65667e-28
3.65667e-28
3.65667e-28
3.65667e-28
1.31716e-27
1.31716e-27
1.31716e-27
1.31716e-27
4.27938e-27
4.27938e-27
4.27938e-27
4.27938e-27
1.21475e-26
1.21475e-26
1.21475e-26
1.21475e-26
2.72252e-26
2.72252e-26
2.72252e-26
2.72252e-26
3.62196e-26
3.62196e-26
3.62196e-26
3.62196e-26
3.26617e-27
3.26617e-27
3.26617e-27
3.26617e-27
4.22181e-27
4.22181e-27
4.22181e-27
4.22181e-27
3.67617e-28
3.67617e-28
3.67617e-28
3.67617e-28
4.61596e-28
4.61596e-28
4.61596e-28
4.61596e-28
1.95026e-29
1.95026e-29
1.95026e-29
1.95026e-29
1.36356e-32
1.36356e-32
1.36356e-32
1.36356e-32
8.77619e-36
8.77619e-36
8.77619e-36
8.77619e-36
3.22167e-38
3.22167e-38
3.22167e-38
3.22167e-38
2.99064e-38
2.99064e-38
2.99064e-38
2.99064e-38
2.66647e-38
2.66647e-38
2.66647e-38
2.66647e-38
2.28345e-38
2.28345e-38
2.28345e-38
2.28345e-38
1.87811e-38
1.87811e-38
1.87811e-38
1.87811e-38
1.48358e-38
1.48358e-38
1.48358e-38
1.48358e-38
1.12554e-38
1.12554e-38
1.12554e-38
1.12554e-38
8.20083e-39
8.20083e-39
8.20083e-39
8.20083e-39
5.73849e-39
5.73849e-39
5.73849e-39
5.73849e-39
3.85631e-39
3.85631e-39
3.85631e-39
3.85631e-39
2.48872e-39
2.48872e-39
2.48872e-39
2.48872e-39
1.54242e-39
1.54242e-39
1.54242e-39
1.54242e-39
9.18015e-40
9.18015e-40
9.18015e-40
9.18015e-40
5.24697e-40
5.24697e-40
5.24697e-40
5.24697e-40
2.87989e-40
2.87989e-40
2.87989e-40
2.87989e-40
1.51791e-40
1.51791e-40
1.51791e-40
1.51791e-40
7.68278e-41
7.68278e-41
7.68278e-41
7.68278e-41
3.7341e-41
3.7341e-41
3.7341e-41
3.7341e-41
1.74279e-41
1.74279e-41
1.74279e-41
1.74279e-41
7.81081e-42
7.81081e-42
7.81081e-42
7.81081e-42
3.36147e-42
3.36147e-42
3.36147e-42
3.36147e-42
1.38894e-42
1.38894e-42
1.38894e-42
1.38894e-42
5.49951e-43
5.49951e-43
5.49951e-43
5.49951e-43
2.04355e-43
2.04355e-43
2.04355e-43
2.04355e-43
5.99646e-44
5.99646e-44
5.99646e-44
5.99646e-44
2.48389e-77
2.48389e-77
2.48389e-77
2.48389e-77
4.98246e-76
4.98246e-76
4.98246e-76
4.98246e-76
5.41602e-75
5.41602e-75
5.41602e-75
5.41602e-75
5.71368e-74
5.71368e-74
5.71368e-74
5.71368e-74
5.84874e-73
5.84874e-73
5.84874e-73
5.84874e-73
5.80805e-72
5.80805e-72
5.80805e-72
5.80805e-72
5.59411e-71
5.59411e-71
5.59411e-71
5.59411e-71
5.22487e-70
5.22487e-70
5.22487e-70
5.22487e-70
4.73126e-69
4.73126e-69
4.73126e-69
4.73126e-69
4.15285e-68
4.15285e-68
4.15285e-68
4.15285e-68
3.53262e-67
3.53262e-67
3.53262e-67
3.53262e-67
2.91168e-66
2.91168e-66
2.91168e-66
2.91168e-66
2.32487e-65
2.32487e-65
2.32487e-65
2.32487e-65
1.79795e-64
1.79795e-64
1.79795e-64
1.79795e-64
1.34646e-63
1.34646e-63
1.34646e-63
1.34646e-63
9.76265e-63
9.76265e-63
9.76265e-63
9.76265e-63
6.85193e-62
6.85193e-62
6.85193e-62
6.85193e-62
4.65423e-61
4.65423e-61
4.65423e-61
4.65423e-61
3.05909e-60
3.05909e-60
3.05909e-60
3.05909e-60
1.9452e-59
1.9452e-59
1.9452e-59
1.9452e-59
1.19643e-58
1.19643e-58
1.19643e-58
1.19643e-58
7.11673e-58
7.11673e-58
7.11673e-58
7.11673e-58
4.09326e-57
4.09326e-57
4.09326e-57
4.09326e-57
2.27602e-56
2.27602e-56
2.27602e-56
2.27602e-56
1.22329e-55
1.22329e-55
1.22329e-55
1.22329e-55
6.35404e-55
6.35404e-55
6.35404e-55
6.35404e-55
3.18912e-54
3.18912e-54
3.18912e-54
3.18912e-54
1.5464e-53
1.5464e-53
1.5464e-53
1.5464e-53
7.24316e-53
7.24316e-53
7.24316e-53
7.24316e-53
3.27661e-52
3.27661e-52
3.27661e-52
3.27661e-52
1.43135e-51
1.43135e-51
1.43135e-51
1.43135e-51
6.03704e-51
6.03704e-51
6.03704e-51
6.03704e-51
2.45808e-50
2.45808e-50
2.45808e-50
2.45808e-50
9.66045e-50
9.66045e-50
9.66045e-50
9.66045e-50
3.66411e-49
3.66411e-49
3.66411e-49
3.66411e-49
1.34106e-48
1.34106e-48
1.34106e-48
1.34106e-48
4.73563e-48
4.73563e-48
4.73563e-48
4.73563e-48
1.61325e-47
1.61325e-47
1.61325e-47
1.61325e-47
5.30103e-47
5.30103e-47
5.30103e-47
5.30103e-47
1.67997e-46
1.67997e-46
1.67997e-46
1.67997e-46
5.13419e-46
5.13419e-46
5.13419e-46
5.13419e-46
1.51294e-45
1.51294e-45
1.51294e-45
1.51294e-45
4.29837e-45
4.29837e-45
4.29837e-45
4.29837e-45
1.17731e-44
1.17731e-44
1.17731e-44
1.17731e-44
3.10905e-44
3.10905e-44
3.10905e-44
3.10905e-44
7.92074e-44
7.92074e-44
7.92074e-44
7.92074e-44
1.95085e-43
1.95085e-43
1.95085e-43
1.95085e-43
4.67557e-43
4.67557e-43
4.67557e-43
4.67557e-43
1.11973e-42
1.11973e-42
1.11973e-42
1.11973e-42
3.40417e-42
3.40417e-42
3.40417e-42
3.40417e-42
4.07875e-41
4.07875e-41
4.07875e-41
4.07875e-41
1.42153e-39
1.42153e-39
1.42153e-39
1.42153e-39
5.16596e-38
5.16596e-38
5.16596e-38
5.16596e-38
1.6865e-36
1.6865e-36
1.6865e-36
1.6865e-36
4.85794e-35
4.85794e-35
4.85794e-35
4.85794e-35
1.22117e-33
1.22117e-33
1.22117e-33
1.22117e-33
2.64457e-32
2.64457e-32
2.64457e-32
2.64457e-32
4.85428e-31
4.85428e-31
4.85428e-31
4.85428e-31
7.39436e-30
7.39436e-30
7.39436e-30
7.39436e-30
9.08636e-29
9.08636e-29
9.08636e-29
9.08636e-29
8.66471e-28
8.66471e-28
8.66471e-28
8.66471e-28
6.08193e-27
6.08193e-27
6.08193e-27
6.08193e-27
2.95475e-26
2.95475e-26
2.95475e-26
2.95475e-26
9.94941e-26
9.94941e-26
9.94941e-26
9.94941e-26
3.039e-25
3.039e-25
3.039e-25
3.039e-25
8.17011e-25
8.17011e-25
8.17011e-25
8.17011e-25
1.75004e-24
1.75004e-24
1.75004e-24
1.75004e-24
2.24642e-24
2.24642e-24
2.24642e-24
2.24642e-24
1.99929e-25
1.99929e-25
1.99929e-25
1.99929e-25
2.50193e-25
2.50193e-25
2.50193e-25
2.50193e-25
2.16192e-26
2.16192e-26
2.16192e-26
2.16192e-26
2.63549e-26
2.63549e-26
2.63549e-26
2.63549e-26
1.12746e-27
1.12746e-27
1.12746e-27
1.12746e-27
8.43851e-31
8.43851e-31
8.43851e-31
8.43851e-31
5.77378e-34
5.77378e-34
5.77378e-34
5.77378e-34
3.80297e-37
3.80297e-37
3.80297e-37
3.80297e-37
3.50876e-37
3.50876e-37
3.50876e-37
3.50876e-37
3.10956e-37
3.10956e-37
3.10956e-37
3.10956e-37
2.64698e-37
2.64698e-37
2.64698e-37
2.64698e-37
2.16421e-37
2.16421e-37
2.16421e-37
2.16421e-37
1.69956e-37
1.69956e-37
1.69956e-37
1.69956e-37
1.28189e-37
1.28189e-37
1.28189e-37
1.28189e-37
9.28625e-38
9.28625e-38
9.28625e-38
9.28625e-38
6.46091e-38
6.46091e-38
6.46091e-38
6.46091e-38
4.31722e-38
4.31722e-38
4.31722e-38
4.31722e-38
2.77055e-38
2.77055e-38
2.77055e-38
2.77055e-38
1.70755e-38
1.70755e-38
1.70755e-38
1.70755e-38
1.0107e-38
1.0107e-38
1.0107e-38
1.0107e-38
5.74516e-39
5.74516e-39
5.74516e-39
5.74516e-39
3.13626e-39
3.13626e-39
3.13626e-39
3.13626e-39
1.64417e-39
1.64417e-39
1.64417e-39
1.64417e-39
8.27757e-40
8.27757e-40
8.27757e-40
8.27757e-40
4.00197e-40
4.00197e-40
4.00197e-40
4.00197e-40
1.85805e-40
1.85805e-40
1.85805e-40
1.85805e-40
8.2842e-41
8.2842e-41
8.2842e-41
8.2842e-41
3.54688e-41
3.54688e-41
3.54688e-41
3.54688e-41
1.4581e-41
1.4581e-41
1.4581e-41
1.4581e-41
5.74491e-42
5.74491e-42
5.74491e-42
5.74491e-42
2.12609e-42
2.12609e-42
2.12609e-42
2.12609e-42
6.23443e-43
6.23443e-43
6.23443e-43
6.23443e-43
2.9233e-76
2.9233e-76
2.9233e-76
2.9233e-76
5.88187e-75
5.88187e-75
5.88187e-75
5.88187e-75
6.42861e-74
6.42861e-74
6.42861e-74
6.42861e-74
6.81819e-73
6.81819e-73
6.81819e-73
6.81819e-73
7.01589e-72
7.01589e-72
7.01589e-72
7.01589e-72
7.00278e-71
7.00278e-71
7.00278e-71
7.00278e-71
6.77863e-70
6.77863e-70
6.77863e-70
6.77863e-70
6.36225e-69
6.36225e-69
6.36225e-69
6.36225e-69
5.78878e-68
5.78878e-68
5.78878e-68
5.78878e-68
5.10488e-67
5.10488e-67
5.10488e-67
5.10488e-67
4.36232e-66
4.36232e-66
4.36232e-66
4.36232e-66
3.61159e-65
3.61159e-65
3.61159e-65
3.61159e-65
2.89629e-64
2.89629e-64
2.89629e-64
2.89629e-64
2.24938e-63
2.24938e-63
2.24938e-63
2.24938e-63
1.69151e-62
1.69151e-62
1.69151e-62
1.69151e-62
1.2314e-61
1.2314e-61
1.2314e-61
1.2314e-61
8.67662e-61
8.67662e-61
8.67662e-61
8.67662e-61
5.91627e-60
5.91627e-60
5.91627e-60
5.91627e-60
3.9031e-59
3.9031e-59