# vtk DataFile Version 2.0
dg(0) output generated by Nextsim
ASCII
DATASET UNSTRUCTURED_GRID
FIELD FieldData 1
TIME 1 1 double
0
POINTS 40000 DOUBLE
0	0	0
0.01	0	0
0.01	0.01	0
0	0.01	0
0.01	0	0
0.02	0	0
0.02	0.01	0
0.01	0.01	0
0.02	0	0
0.03	0	0
0.03	0.01	0
0.02	0.01	0
0.03	0	0
0.04	0	0
0.04	0.01	0
0.03	0.01	0
0.04	0	0
0.05	0	0
0.05	0.01	0
0.04	0.01	0
0.05	0	0
0.06	0	0
0.06	0.01	0
0.05	0.01	0
0.06	0	0
0.07	0	0
0.07	0.01	0
0.06	0.01	0
0.07	0	0
0.08	0	0
0.08	0.01	0
0.07	0.01	0
0.08	0	0
0.09	0	0
0.09	0.01	0
0.08	0.01	0
0.09	0	0
0.1	0	0
0.1	0.01	0
0.09	0.01	0
0.1	0	0
0.11	0	0
0.11	0.01	0
0.1	0.01	0
0.11	0	0
0.12	0	0
0.12	0.01	0
0.11	0.01	0
0.12	0	0
0.13	0	0
0.13	0.01	0
0.12	0.01	0
0.13	0	0
0.14	0	0
0.14	0.01	0
0.13	0.01	0
0.14	0	0
0.15	0	0
0.15	0.01	0
0.14	0.01	0
0.15	0	0
0.16	0	0
0.16	0.01	0
0.15	0.01	0
0.16	0	0
0.17	0	0
0.17	0.01	0
0.16	0.01	0
0.17	0	0
0.18	0	0
0.18	0.01	0
0.17	0.01	0
0.18	0	0
0.19	0	0
0.19	0.01	0
0.18	0.01	0
0.19	0	0
0.2	0	0
0.2	0.01	0
0.19	0.01	0
0.2	0	0
0.21	0	0
0.21	0.01	0
0.2	0.01	0
0.21	0	0
0.22	0	0
0.22	0.01	0
0.21	0.01	0
0.22	0	0
0.23	0	0
0.23	0.01	0
0.22	0.01	0
0.23	0	0
0.24	0	0
0.24	0.01	0
0.23	0.01	0
0.24	0	0
0.25	0	0
0.25	0.01	0
0.24	0.01	0
0.25	0	0
0.26	0	0
0.26	0.01	0
0.25	0.01	0
0.26	0	0
0.27	0	0
0.27	0.01	0
0.26	0.01	0
0.27	0	0
0.28	0	0
0.28	0.01	0
0.27	0.01	0
0.28	0	0
0.29	0	0
0.29	0.01	0
0.28	0.01	0
0.29	0	0
0.3	0	0
0.3	0.01	0
0.29	0.01	0
0.3	0	0
0.31	0	0
0.31	0.01	0
0.3	0.01	0
0.31	0	0
0.32	0	0
0.32	0.01	0
0.31	0.01	0
0.32	0	0
0.33	0	0
0.33	0.01	0
0.32	0.01	0
0.33	0	0
0.34	0	0
0.34	0.01	0
0.33	0.01	0
0.34	0	0
0.35	0	0
0.35	0.01	0
0.34	0.01	0
0.35	0	0
0.36	0	0
0.36	0.01	0
0.35	0.01	0
0.36	0	0
0.37	0	0
0.37	0.01	0
0.36	0.01	0
0.37	0	0
0.38	0	0
0.38	0.01	0
0.37	0.01	0
0.38	0	0
0.39	0	0
0.39	0.01	0
0.38	0.01	0
0.39	0	0
0.4	0	0
0.4	0.01	0
0.39	0.01	0
0.4	0	0
0.41	0	0
0.41	0.01	0
0.4	0.01	0
0.41	0	0
0.42	0	0
0.42	0.01	0
0.41	0.01	0
0.42	0	0
0.43	0	0
0.43	0.01	0
0.42	0.01	0
0.43	0	0
0.44	0	0
0.44	0.01	0
0.43	0.01	0
0.44	0	0
0.45	0	0
0.45	0.01	0
0.44	0.01	0
0.45	0	0
0.46	0	0
0.46	0.01	0
0.45	0.01	0
0.46	0	0
0.47	0	0
0.47	0.01	0
0.46	0.01	0
0.47	0	0
0.48	0	0
0.48	0.01	0
0.47	0.01	0
0.48	0	0
0.49	0	0
0.49	0.01	0
0.48	0.01	0
0.49	0	0
0.5	0	0
0.5	0.01	0
0.49	0.01	0
0.5	0	0
0.51	0	0
0.51	0.01	0
0.5	0.01	0
0.51	0	0
0.52	0	0
0.52	0.01	0
0.51	0.01	0
0.52	0	0
0.53	0	0
0.53	0.01	0
0.52	0.01	0
0.53	0	0
0.54	0	0
0.54	0.01	0
0.53	0.01	0
0.54	0	0
0.55	0	0
0.55	0.01	0
0.54	0.01	0
0.55	0	0
0.56	0	0
0.56	0.01	0
0.55	0.01	0
0.56	0	0
0.57	0	0
0.57	0.01	0
0.56	0.01	0
0.57	0	0
0.58	0	0
0.58	0.01	0
0.57	0.01	0
0.58	0	0
0.59	0	0
0.59	0.01	0
0.58	0.01	0
0.59	0	0
0.6	0	0
0.6	0.01	0
0.59	0.01	0
0.6	0	0
0.61	0	0
0.61	0.01	0
0.6	0.01	0
0.61	0	0
0.62	0	0
0.62	0.01	0
0.61	0.01	0
0.62	0	0
0.63	0	0
0.63	0.01	0
0.62	0.01	0
0.63	0	0
0.64	0	0
0.64	0.01	0
0.63	0.01	0
0.64	0	0
0.65	0	0
0.65	0.01	0
0.64	0.01	0
0.65	0	0
0.66	0	0
0.66	0.01	0
0.65	0.01	0
0.66	0	0
0.67	0	0
0.67	0.01	0
0.66	0.01	0
0.67	0	0
0.68	0	0
0.68	0.01	0
0.67	0.01	0
0.68	0	0
0.69	0	0
0.69	0.01	0
0.68	0.01	0
0.69	0	0
0.7	0	0
0.7	0.01	0
0.69	0.01	0
0.7	0	0
0.71	0	0
0.71	0.01	0
0.7	0.01	0
0.71	0	0
0.72	0	0
0.72	0.01	0
0.71	0.01	0
0.72	0	0
0.73	0	0
0.73	0.01	0
0.72	0.01	0
0.73	0	0
0.74	0	0
0.74	0.01	0
0.73	0.01	0
0.74	0	0
0.75	0	0
0.75	0.01	0
0.74	0.01	0
0.75	0	0
0.76	0	0
0.76	0.01	0
0.75	0.01	0
0.76	0	0
0.77	0	0
0.77	0.01	0
0.76	0.01	0
0.77	0	0
0.78	0	0
0.78	0.01	0
0.77	0.01	0
0.78	0	0
0.79	0	0
0.79	0.01	0
0.78	0.01	0
0.79	0	0
0.8	0	0
0.8	0.01	0
0.79	0.01	0
0.8	0	0
0.81	0	0
0.81	0.01	0
0.8	0.01	0
0.81	0	0
0.82	0	0
0.82	0.01	0
0.81	0.01	0
0.82	0	0
0.83	0	0
0.83	0.01	0
0.82	0.01	0
0.83	0	0
0.84	0	0
0.84	0.01	0
0.83	0.01	0
0.84	0	0
0.85	0	0
0.85	0.01	0
0.84	0.01	0
0.85	0	0
0.86	0	0
0.86	0.01	0
0.85	0.01	0
0.86	0	0
0.87	0	0
0.87	0.01	0
0.86	0.01	0
0.87	0	0
0.88	0	0
0.88	0.01	0
0.87	0.01	0
0.88	0	0
0.89	0	0
0.89	0.01	0
0.88	0.01	0
0.89	0	0
0.9	0	0
0.9	0.01	0
0.89	0.01	0
0.9	0	0
0.91	0	0
0.91	0.01	0
0.9	0.01	0
0.91	0	0
0.92	0	0
0.92	0.01	0
0.91	0.01	0
0.92	0	0
0.93	0	0
0.93	0.01	0
0.92	0.01	0
0.93	0	0
0.94	0	0
0.94	0.01	0
0.93	0.01	0
0.94	0	0
0.95	0	0
0.95	0.01	0
0.94	0.01	0
0.95	0	0
0.96	0	0
0.96	0.01	0
0.95	0.01	0
0.96	0	0
0.97	0	0
0.97	0.01	0
0.96	0.01	0
0.97	0	0
0.98	0	0
0.98	0.01	0
0.97	0.01	0
0.98	0	0
0.99	0	0
0.99	0.01	0
0.98	0.01	0
0.99	0	0
1	0	0
1	0.01	0
0.99	0.01	0
0	0.01	0
0.01	0.01	0
0.01	0.02	0
0	0.02	0
0.01	0.01	0
0.02	0.01	0
0.02	0.02	0
0.01	0.02	0
0.02	0.01	0
0.03	0.01	0
0.03	0.02	0
0.02	0.02	0
0.03	0.01	0
0.04	0.01	0
0.04	0.02	0
0.03	0.02	0
0.04	0.01	0
0.05	0.01	0
0.05	0.02	0
0.04	0.02	0
0.05	0.01	0
0.06	0.01	0
0.06	0.02	0
0.05	0.02	0
0.06	0.01	0
0.07	0.01	0
0.07	0.02	0
0.06	0.02	0
0.07	0.01	0
0.08	0.01	0
0.08	0.02	0
0.07	0.02	0
0.08	0.01	0
0.09	0.01	0
0.09	0.02	0
0.08	0.02	0
0.09	0.01	0
0.1	0.01	0
0.1	0.02	0
0.09	0.02	0
0.1	0.01	0
0.11	0.01	0
0.11	0.02	0
0.1	0.02	0
0.11	0.01	0
0.12	0.01	0
0.12	0.02	0
0.11	0.02	0
0.12	0.01	0
0.13	0.01	0
0.13	0.02	0
0.12	0.02	0
0.13	0.01	0
0.14	0.01	0
0.14	0.02	0
0.13	0.02	0
0.14	0.01	0
0.15	0.01	0
0.15	0.02	0
0.14	0.02	0
0.15	0.01	0
0.16	0.01	0
0.16	0.02	0
0.15	0.02	0
0.16	0.01	0
0.17	0.01	0
0.17	0.02	0
0.16	0.02	0
0.17	0.01	0
0.18	0.01	0
0.18	0.02	0
0.17	0.02	0
0.18	0.01	0
0.19	0.01	0
0.19	0.02	0
0.18	0.02	0
0.19	0.01	0
0.2	0.01	0
0.2	0.02	0
0.19	0.02	0
0.2	0.01	0
0.21	0.01	0
0.21	0.02	0
0.2	0.02	0
0.21	0.01	0
0.22	0.01	0
0.22	0.02	0
0.21	0.02	0
0.22	0.01	0
0.23	0.01	0
0.23	0.02	0
0.22	0.02	0
0.23	0.01	0
0.24	0.01	0
0.24	0.02	0
0.23	0.02	0
0.24	0.01	0
0.25	0.01	0
0.25	0.02	0
0.24	0.02	0
0.25	0.01	0
0.26	0.01	0
0.26	0.02	0
0.25	0.02	0
0.26	0.01	0
0.27	0.01	0
0.27	0.02	0
0.26	0.02	0
0.27	0.01	0
0.28	0.01	0
0.28	0.02	0
0.27	0.02	0
0.28	0.01	0
0.29	0.01	0
0.29	0.02	0
0.28	0.02	0
0.29	0.01	0
0.3	0.01	0
0.3	0.02	0
0.29	0.02	0
0.3	0.01	0
0.31	0.01	0
0.31	0.02	0
0.3	0.02	0
0.31	0.01	0
0.32	0.01	0
0.32	0.02	0
0.31	0.02	0
0.32	0.01	0
0.33	0.01	0
0.33	0.02	0
0.32	0.02	0
0.33	0.01	0
0.34	0.01	0
0.34	0.02	0
0.33	0.02	0
0.34	0.01	0
0.35	0.01	0
0.35	0.02	0
0.34	0.02	0
0.35	0.01	0
0.36	0.01	0
0.36	0.02	0
0.35	0.02	0
0.36	0.01	0
0.37	0.01	0
0.37	0.02	0
0.36	0.02	0
0.37	0.01	0
0.38	0.01	0
0.38	0.02	0
0.37	0.02	0
0.38	0.01	0
0.39	0.01	0
0.39	0.02	0
0.38	0.02	0
0.39	0.01	0
0.4	0.01	0
0.4	0.02	0
0.39	0.02	0
0.4	0.01	0
0.41	0.01	0
0.41	0.02	0
0.4	0.02	0
0.41	0.01	0
0.42	0.01	0
0.42	0.02	0
0.41	0.02	0
0.42	0.01	0
0.43	0.01	0
0.43	0.02	0
0.42	0.02	0
0.43	0.01	0
0.44	0.01	0
0.44	0.02	0
0.43	0.02	0
0.44	0.01	0
0.45	0.01	0
0.45	0.02	0
0.44	0.02	0
0.45	0.01	0
0.46	0.01	0
0.46	0.02	0
0.45	0.02	0
0.46	0.01	0
0.47	0.01	0
0.47	0.02	0
0.46	0.02	0
0.47	0.01	0
0.48	0.01	0
0.48	0.02	0
0.47	0.02	0
0.48	0.01	0
0.49	0.01	0
0.49	0.02	0
0.48	0.02	0
0.49	0.01	0
0.5	0.01	0
0.5	0.02	0
0.49	0.02	0
0.5	0.01	0
0.51	0.01	0
0.51	0.02	0
0.5	0.02	0
0.51	0.01	0
0.52	0.01	0
0.52	0.02	0
0.51	0.02	0
0.52	0.01	0
0.53	0.01	0
0.53	0.02	0
0.52	0.02	0
0.53	0.01	0
0.54	0.01	0
0.54	0.02	0
0.53	0.02	0
0.54	0.01	0
0.55	0.01	0
0.55	0.02	0
0.54	0.02	0
0.55	0.01	0
0.56	0.01	0
0.56	0.02	0
0.55	0.02	0
0.56	0.01	0
0.57	0.01	0
0.57	0.02	0
0.56	0.02	0
0.57	0.01	0
0.58	0.01	0
0.58	0.02	0
0.57	0.02	0
0.58	0.01	0
0.59	0.01	0
0.59	0.02	0
0.58	0.02	0
0.59	0.01	0
0.6	0.01	0
0.6	0.02	0
0.59	0.02	0
0.6	0.01	0
0.61	0.01	0
0.61	0.02	0
0.6	0.02	0
0.61	0.01	0
0.62	0.01	0
0.62	0.02	0
0.61	0.02	0
0.62	0.01	0
0.63	0.01	0
0.63	0.02	0
0.62	0.02	0
0.63	0.01	0
0.64	0.01	0
0.64	0.02	0
0.63	0.02	0
0.64	0.01	0
0.65	0.01	0
0.65	0.02	0
0.64	0.02	0
0.65	0.01	0
0.66	0.01	0
0.66	0.02	0
0.65	0.02	0
0.66	0.01	0
0.67	0.01	0
0.67	0.02	0
0.66	0.02	0
0.67	0.01	0
0.68	0.01	0
0.68	0.02	0
0.67	0.02	0
0.68	0.01	0
0.69	0.01	0
0.69	0.02	0
0.68	0.02	0
0.69	0.01	0
0.7	0.01	0
0.7	0.02	0
0.69	0.02	0
0.7	0.01	0
0.71	0.01	0
0.71	0.02	0
0.7	0.02	0
0.71	0.01	0
0.72	0.01	0
0.72	0.02	0
0.71	0.02	0
0.72	0.01	0
0.73	0.01	0
0.73	0.02	0
0.72	0.02	0
0.73	0.01	0
0.74	0.01	0
0.74	0.02	0
0.73	0.02	0
0.74	0.01	0
0.75	0.01	0
0.75	0.02	0
0.74	0.02	0
0.75	0.01	0
0.76	0.01	0
0.76	0.02	0
0.75	0.02	0
0.76	0.01	0
0.77	0.01	0
0.77	0.02	0
0.76	0.02	0
0.77	0.01	0
0.78	0.01	0
0.78	0.02	0
0.77	0.02	0
0.78	0.01	0
0.79	0.01	0
0.79	0.02	0
0.78	0.02	0
0.79	0.01	0
0.8	0.01	0
0.8	0.02	0
0.79	0.02	0
0.8	0.01	0
0.81	0.01	0
0.81	0.02	0
0.8	0.02	0
0.81	0.01	0
0.82	0.01	0
0.82	0.02	0
0.81	0.02	0
0.82	0.01	0
0.83	0.01	0
0.83	0.02	0
0.82	0.02	0
0.83	0.01	0
0.84	0.01	0
0.84	0.02	0
0.83	0.02	0
0.84	0.01	0
0.85	0.01	0
0.85	0.02	0
0.84	0.02	0
0.85	0.01	0
0.86	0.01	0
0.86	0.02	0
0.85	0.02	0
0.86	0.01	0
0.87	0.01	0
0.87	0.02	0
0.86	0.02	0
0.87	0.01	0
0.88	0.01	0
0.88	0.02	0
0.87	0.02	0
0.88	0.01	0
0.89	0.01	0
0.89	0.02	0
0.88	0.02	0
0.89	0.01	0
0.9	0.01	0
0.9	0.02	0
0.89	0.02	0
0.9	0.01	0
0.91	0.01	0
0.91	0.02	0
0.9	0.02	0
0.91	0.01	0
0.92	0.01	0
0.92	0.02	0
0.91	0.02	0
0.92	0.01	0
0.93	0.01	0
0.93	0.02	0
0.92	0.02	0
0.93	0.01	0
0.94	0.01	0
0.94	0.02	0
0.93	0.02	0
0.94	0.01	0
0.95	0.01	0
0.95	0.02	0
0.94	0.02	0
0.95	0.01	0
0.96	0.01	0
0.96	0.02	0
0.95	0.02	0
0.96	0.01	0
0.97	0.01	0
0.97	0.02	0
0.96	0.02	0
0.97	0.01	0
0.98	0.01	0
0.98	0.02	0
0.97	0.02	0
0.98	0.01	0
0.99	0.01	0
0.99	0.02	0
0.98	0.02	0
0.99	0.01	0
1	0.01	0
1	0.02	0
0.99	0.02	0
0	0.02	0
0.01	0.02	0
0.01	0.03	0
0	0.03	0
0.01	0.02	0
0.02	0.02	0
0.02	0.03	0
0.01	0.03	0
0.02	0.02	0
0.03	0.02	0
0.03	0.03	0
0.02	0.03	0
0.03	0.02	0
0.04	0.02	0
0.04	0.03	0
0.03	0.03	0
0.04	0.02	0
0.05	0.02	0
0.05	0.03	0
0.04	0.03	0
0.05	0.02	0
0.06	0.02	0
0.06	0.03	0
0.05	0.03	0
0.06	0.02	0
0.07	0.02	0
0.07	0.03	0
0.06	0.03	0
0.07	0.02	0
0.08	0.02	0
0.08	0.03	0
0.07	0.03	0
0.08	0.02	0
0.09	0.02	0
0.09	0.03	0
0.08	0.03	0
0.09	0.02	0
0.1	0.02	0
0.1	0.03	0
0.09	0.03	0
0.1	0.02	0
0.11	0.02	0
0.11	0.03	0
0.1	0.03	0
0.11	0.02	0
0.12	0.02	0
0.12	0.03	0
0.11	0.03	0
0.12	0.02	0
0.13	0.02	0
0.13	0.03	0
0.12	0.03	0
0.13	0.02	0
0.14	0.02	0
0.14	0.03	0
0.13	0.03	0
0.14	0.02	0
0.15	0.02	0
0.15	0.03	0
0.14	0.03	0
0.15	0.02	0
0.16	0.02	0
0.16	0.03	0
0.15	0.03	0
0.16	0.02	0
0.17	0.02	0
0.17	0.03	0
0.16	0.03	0
0.17	0.02	0
0.18	0.02	0
0.18	0.03	0
0.17	0.03	0
0.18	0.02	0
0.19	0.02	0
0.19	0.03	0
0.18	0.03	0
0.19	0.02	0
0.2	0.02	0
0.2	0.03	0
[...]
POINT_DATA 40000
SCALARS dg0 DOUBLE 
LOOKUP_TABLE default
9.10323e-83
9.10323e-83
9.10323e-83
9.10323e-83
1.99316e-81
1.99316e-81
1.99316e-81
1.99316e-81
2.51819e-80
2.51819e-80
2.51819e-80
2.51819e-80
3.07551e-79
3.07551e-79
3.07551e-79
3.07551e-79
3.63044e-78
3.63044e-78
3.63044e-78
3.63044e-78
4.14145e-77
4.14145e-77
4.14145e-77
4.14145e-77
4.56488e-76
4.56488e-76
4.56488e-76
4.56488e-76
4.86103e-75
4.86103e-75
4.86103e-75
4.86103e-75
5.00017e-74
5.00017e-74
5.00017e-74
5.00017e-74
4.96748e-73
4.96748e-73
4.96748e-73
4.96748e-73
4.76563e-72
4.76563e-72
4.76563e-72
4.76563e-72
4.41446e-71
4.41446e-71
4.41446e-71
4.41446e-71
3.94772e-70
3.94772e-70
3.94772e-70
3.94772e-70
3.40775e-69
3.40775e-69
3.40775e-69
3.40775e-69
2.83913e-68
2.83913e-68
2.83913e-68
2.83913e-68
2.28264e-67
2.28264e-67
2.28264e-67
2.28264e-67
1.77081e-66
1.77081e-66
1.77081e-66
1.77081e-66
1.32535e-65
1.32535e-65
1.32535e-65
1.32535e-65
9.56892e-65
9.56892e-65
9.56892e-65
9.56892e-65
6.66365e-64
6.66365e-64
6.66365e-64
6.66365e-64
4.47535e-63
4.47535e-63
4.47535e-63
4.47535e-63
2.89839e-62
2.89839e-62
2.89839e-62
2.89839e-62
1.80989e-61
1.80989e-61
1.80989e-61
1.80989e-61
1.0896e-60
1.0896e-60
1.0896e-60
1.0896e-60
6.32334e-60
6.32334e-60
6.32334e-60
6.32334e-60
3.53712e-59
3.53712e-59
3.53712e-59
3.53712e-59
1.90691e-58
1.90691e-58
1.90691e-58
1.90691e-58
9.90706e-58
9.90706e-58
9.90706e-58
9.90706e-58
4.95962e-57
4.95962e-57
4.95962e-57
4.95962e-57
2.39222e-56
2.39222e-56
2.39222e-56
2.39222e-56
1.11163e-55
1.11163e-55
1.11163e-55
1.11163e-55
4.97608e-55
4.97608e-55
4.97608e-55
4.97608e-55
2.14557e-54
2.14557e-54
2.14557e-54
2.14557e-54
8.91027e-54
8.91027e-54
8.91027e-54
8.91027e-54
3.56364e-53
3.56364e-53
3.56364e-53
3.56364e-53
1.37251e-52
1.37251e-52
1.37251e-52
1.37251e-52
5.09007e-52
5.09007e-52
5.09007e-52
5.09007e-52
1.81754e-51
1.81754e-51
1.81754e-51
1.81754e-51
6.24831e-51
6.24831e-51
6.24831e-51
6.24831e-51
2.0679e-50
2.0679e-50
2.0679e-50
2.0679e-50
6.58803e-50
6.58803e-50
6.58803e-50
6.58803e-50
2.02027e-49
2.02027e-49
2.02027e-49
2.02027e-49
5.96299e-49
5.96299e-49
5.96299e-49
5.96299e-49
1.69391e-48
1.69391e-48
1.69391e-48
1.69391e-48
4.63088e-48
4.63088e-48
4.63088e-48
4.63088e-48
1.21832e-47
1.21832e-47
1.21832e-47
1.21832e-47
3.08445e-47
3.08445e-47
3.08445e-47
3.08445e-47
7.51643e-47
7.51643e-47
7.51643e-47
7.51643e-47
1.7652e-46
1.7652e-46
1.7652e-46
1.7652e-46
4.01412e-46
4.01412e-46
4.01412e-46
4.01412e-46
8.95838e-46
8.95838e-46
8.95838e-46
8.95838e-46
1.96195e-45
1.96195e-45
1.96195e-45
1.96195e-45
4.16269e-45
4.16269e-45
4.16269e-45
4.16269e-45
8.55007e-45
8.55007e-45
8.55007e-45
8.55007e-45
1.69882e-44
1.69882e-44
1.69882e-44
1.69882e-44
3.26274e-44
3.26274e-44
3.26274e-44
3.26274e-44
6.05296e-44
6.05296e-44
6.05296e-44
6.05296e-44
1.08401e-43
1.08401e-43
1.08401e-43
1.08401e-43
1.87604e-43
1.87604e-43
1.87604e-43
1.87604e-43
3.29375e-43
3.29375e-43
3.29375e-43
3.29375e-43
1.13296e-42
1.13296e-42
1.13296e-42
1.13296e-42
1.56015e-41
1.56015e-41
1.56015e-41
1.56015e-41
1.90322e-40
1.90322e-40
1.90322e-40
1.90322e-40
8.50601e-40
8.50601e-40
8.50601e-40
8.50601e-40
3.43465e-39
3.43465e-39
3.43465e-39
3.43465e-39
1.26169e-38
1.26169e-38
1.26169e-38
1.26169e-38
4.11328e-38
4.11328e-38
4.11328e-38
4.11328e-38
9.66387e-38
9.66387e-38
9.66387e-38
9.66387e-38
1.62061e-39
1.62061e-39
1.62061e-39
1.62061e-39
3.65463e-39
3.65463e-39
3.65463e-39
3.65463e-39
6.21383e-41
6.21383e-41
6.21383e-41
6.21383e-41
1.28439e-40
1.28439e-40
1.28439e-40
1.28439e-40
8.6504e-42
8.6504e-42
8.6504e-42
8.6504e-42
7.10837e-42
7.10837e-42
7.10837e-42
7.10837e-42
6.62048e-42
6.62048e-42
6.62048e-42
6.62048e-42
5.92571e-42
5.92571e-42
5.92571e-42
5.92571e-42
5.09683e-42
5.09683e-42
5.09683e-42
5.09683e-42
4.2126e-42
4.2126e-42
4.2126e-42
4.2126e-42
3.34562e-42
3.34562e-42
3.34562e-42
3.34562e-42
2.55307e-42
2.55307e-42
2.55307e-42
2.55307e-42
1.87197e-42
1.87197e-42
1.87197e-42
1.87197e-42
1.31878e-42
1.31878e-42
1.31878e-42
1.31878e-42
8.92636e-43
8.92636e-43
8.92636e-43
8.92636e-43
5.8049e-43
5.8049e-43
5.8049e-43
5.8049e-43
3.62682e-43
3.62682e-43
3.62682e-43
3.62682e-43
2.17701e-43
2.17701e-43
2.17701e-43
2.17701e-43
1.25543e-43
1.25543e-43
1.25543e-43
1.25543e-43
6.95525e-44
6.95525e-44
6.95525e-44
6.95525e-44
3.70186e-44
3.70186e-44
3.70186e-44
3.70186e-44
1.89281e-44
1.89281e-44
1.89281e-44
1.89281e-44
9.29754e-45
9.29754e-45
9.29754e-45
9.29754e-45
4.38734e-45
4.38734e-45
4.38734e-45
4.38734e-45
1.98884e-45
1.98884e-45
1.98884e-45
1.98884e-45
8.66089e-46
8.66089e-46
8.66089e-46
8.66089e-46
3.62313e-46
3.62313e-46
3.62313e-46
3.62313e-46
1.456e-46
1.456e-46
1.456e-46
1.456e-46
5.62069e-47
5.62069e-47
5.62069e-47
5.62069e-47
2.08385e-47
2.08385e-47
2.08385e-47
2.08385e-47
7.37874e-48
7.37874e-48
7.37874e-48
7.37874e-48
2.26631e-48
2.26631e-48
2.26631e-48
2.26631e-48
1.34286e-81
1.34286e-81
1.34286e-81
1.34286e-81
2.94488e-80
2.94488e-80
2.94488e-80
2.94488e-80
3.73059e-79
3.73059e-79
3.73059e-79
3.73059e-79
4.56807e-78
4.56807e-78
4.56807e-78
4.56807e-78
5.40591e-77
5.40591e-77
5.40591e-77
5.40591e-77
6.18188e-76
6.18188e-76
6.18188e-76
6.18188e-76
6.83004e-75
6.83004e-75
6.83004e-75
6.83004e-75
7.28977e-74
7.28977e-74
7.28977e-74
7.28977e-74
7.51501e-73
7.51501e-73
7.51501e-73
7.51501e-73
7.48182e-72
7.48182e-72
7.48182e-72
7.48182e-72
7.19262e-71
7.19262e-71
7.19262e-71
7.19262e-71
6.67586e-70
6.67586e-70
6.67586e-70
6.67586e-70
5.98147e-69
5.98147e-69
5.98147e-69
5.98147e-69
5.17287e-68
5.17287e-68
5.17287e-68
5.17287e-68
4.31737e-67
4.31737e-67
4.31737e-67
4.31737e-67
3.47708e-66
3.47708e-66
3.47708e-66
3.47708e-66
2.70186e-65
2.70186e-65
2.70186e-65
2.70186e-65
2.02538e-64
2.02538e-64
2.02538e-64
2.02538e-64
1.46452e-63
1.46452e-63
1.46452e-63
1.46452e-63
1.02135e-62
1.02135e-62
1.02135e-62
1.02135e-62
6.86901e-62
6.86901e-62
6.86901e-62
6.86901e-62
4.45454e-61
4.45454e-61
4.45454e-61
4.45454e-61
2.78516e-60
2.78516e-60
2.78516e-60
2.78516e-60
1.67877e-59
1.67877e-59
1.67877e-59
1.67877e-59
9.75384e-59
9.75384e-59
9.75384e-59
9.75384e-59
5.4621e-58
5.4621e-58
5.4621e-58
5.4621e-58
2.9478e-57
2.9478e-57
2.9478e-57
2.9478e-57
1.53302e-56
1.53302e-56
1.53302e-56
1.53302e-56
7.68182e-56
7.68182e-56
7.68182e-56
7.68182e-56
3.70859e-55
3.70859e-55
3.70859e-55
3.70859e-55
1.7248e-54
1.7248e-54
1.7248e-54
1.7248e-54
7.72712e-54
7.72712e-54
7.72712e-54
7.72712e-54
3.33431e-53
3.33431e-53
3.33431e-53
3.33431e-53
1.38569e-52
1.38569e-52
1.38569e-52
1.38569e-52
5.5458e-52
5.5458e-52
5.5458e-52
5.5458e-52
2.13729e-51
2.13729e-51
2.13729e-51
2.13729e-51
7.93106e-51
7.93106e-51
7.93106e-51
7.93106e-51
2.83357e-50
2.83357e-50
2.83357e-50
2.83357e-50
9.74631e-50
9.74631e-50
9.74631e-50
9.74631e-50
3.22715e-49
3.22715e-49
3.22715e-49
3.22715e-49
1.02859e-48
1.02859e-48
1.02859e-48
1.02859e-48
3.15556e-48
3.15556e-48
3.15556e-48
3.15556e-48
9.31745e-48
9.31745e-48
9.31745e-48
9.31745e-48
2.64775e-47
2.64775e-47
2.64775e-47
2.64775e-47
7.24086e-47
7.24086e-47
7.24086e-47
7.24086e-47
1.90555e-46
1.90555e-46
1.90555e-46
1.90555e-46
4.82611e-46
4.82611e-46
4.82611e-46
4.82611e-46
1.17707e-45
1.17707e-45
1.17707e-45
1.17707e-45
2.77358e-45
2.77358e-45
2.77358e-45
2.77358e-45
6.39037e-45
6.39037e-45
6.39037e-45
6.39037e-45
1.48502e-44
1.48502e-44
1.48502e-44
1.48502e-44
3.43565e-44
3.43565e-44
3.43565e-44
3.43565e-44
7.64284e-44
7.64284e-44
7.64284e-44
7.64284e-44
1.63475e-43
1.63475e-43
1.63475e-43
1.63475e-43
3.36184e-43
3.36184e-43
3.36184e-43
3.36184e-43
6.64682e-43
6.64682e-43
6.64682e-43
6.64682e-43
1.26344e-42
1.26344e-42
1.26344e-42
1.26344e-42
2.3111e-42
2.3111e-42
2.3111e-42
2.3111e-42
4.21206e-42
4.21206e-42
4.21206e-42
4.21206e-42
1.41703e-41
1.41703e-41
1.41703e-41
1.41703e-41
2.53888e-40
2.53888e-40
2.53888e-40
2.53888e-40
5.27128e-39
5.27128e-39
5.27128e-39
5.27128e-39
6.23371e-38
6.23371e-38
6.23371e-38
6.23371e-38
2.59873e-37
2.59873e-37
2.59873e-37
2.59873e-37
9.81122e-37
9.81122e-37
9.81122e-37
9.81122e-37
3.38154e-36
3.38154e-36
3.38154e-36
3.38154e-36
1.03743e-35
1.03743e-35
1.03743e-35
1.03743e-35
2.29791e-35
2.29791e-35
2.29791e-35
2.29791e-35
4.06031e-37
4.06031e-37
4.06031e-37
4.06031e-37
8.67655e-37
8.67655e-37
8.67655e-37
8.67655e-37
1.41951e-38
1.41951e-38
1.41951e-38
1.41951e-38
2.93925e-38
2.93925e-38
2.93925e-38
2.93925e-38
5.08583e-40
5.08583e-40
5.08583e-40
5.08583e-40
1.62776e-40
1.62776e-40
1.62776e-40
1.62776e-40
1.51415e-40
1.51415e-40
1.51415e-40
1.51415e-40
1.35346e-40
1.35346e-40
1.35346e-40
1.35346e-40
1.16244e-40
1.16244e-40
1.16244e-40
1.16244e-40
9.5928e-41
9.5928e-41
9.5928e-41
9.5928e-41
7.60602e-41
7.60602e-41
7.60602e-41
7.60602e-41
5.7943e-41
5.7943e-41
5.7943e-41
5.7943e-41
4.24101e-41
4.24101e-41
4.24101e-41
4.24101e-41
2.98235e-41
2.98235e-41
2.98235e-41
2.98235e-41
2.01493e-41
2.01493e-41
2.01493e-41
2.01493e-41
1.30789e-41
1.30789e-41
1.30789e-41
1.30789e-41
8.15611e-42
8.15611e-42
8.15611e-42
8.15611e-42
4.88646e-42
4.88646e-42
4.88646e-42
4.88646e-42
2.81254e-42
2.81254e-42
2.81254e-42
2.81254e-42
1.55522e-42
1.55522e-42
1.55522e-42
1.55522e-42
8.2617e-43
8.2617e-43
8.2617e-43
8.2617e-43
4.21627e-43
4.21627e-43
4.21627e-43
4.21627e-43
2.06711e-43
2.06711e-43
2.06711e-43
2.06711e-43
9.7358e-44
9.7358e-44
9.7358e-44
9.7358e-44
4.40504e-44
4.40504e-44
4.40504e-44
4.40504e-44
1.91467e-44
1.91467e-44
1.91467e-44
1.91467e-44
7.99471e-45
7.99471e-45
7.99471e-45
7.99471e-45
3.2068e-45
3.2068e-45
3.2068e-45
3.2068e-45
1.23565e-45
1.23565e-45
1.23565e-45
1.23565e-45
4.57272e-46
4.57272e-46
4.57272e-46
4.57272e-46
1.61643e-46
1.61643e-46
1.61643e-46
1.61643e-46
4.96209e-47
4.96209e-47
4.96209e-47
4.96209e-47
1.86006e-80
1.86006e-80
1.86006e-80
1.86006e-80
4.08676e-79
4.08676e-79
4.08676e-79
4.08676e-79
5.19338e-78
5.19338e-78
5.19338e-78
5.19338e-78
6.3787e-77
6.3787e-77
6.3787e-77
6.3787e-77
7.57114e-76
7.57114e-76
7.57114e-76
7.57114e-76
8.68304e-75
8.68304e-75
8.68304e-75
8.68304e-75
9.62057e-74
9.62057e-74
9.62057e-74
9.62057e-74
1.02964e-72
1.02964e-72
1.02964e-72
1.02964e-72
1.06429e-71
1.06429e-71
1.06429e-71
1.06429e-71
1.06235e-70
1.06235e-70
1.06235e-70
1.06235e-70
1.02386e-69
1.02386e-69
1.02386e-69
1.02386e-69
9.52638e-69
9.52638e-69
9.52638e-69
9.52638e-69
8.55585e-68
8.55585e-68
8.55585e-68
8.55585e-68
7.41637e-67
7.41637e-67
7.41637e-67
7.41637e-67
6.20374e-66
6.20374e-66
6.20374e-66
6.20374e-66
5.0072e-65
5.0072e-65
5.0072e-65
5.0072e-65
3.89905e-64
3.89905e-64
3.89905e-64
3.89905e-64
2.92882e-63
2.92882e-63
2.92882e-63
2.92882e-63
2.12199e-62
2.12199e-62
2.12199e-62
2.12199e-62
1.48271e-61
1.48271e-61
1.48271e-61
1.48271e-61
9.99042e-61
9.99042e-61
9.99042e-61
9.99042e-61
6.49044e-60
6.49044e-60
6.49044e-60
6.49044e-60
4.06518e-59
4.06518e-59
4.06518e-59
4.06518e-59
2.45444e-58
2.45444e-58
2.45444e-58
2.45444e-58
1.42839e-57
1.42839e-57
1.42839e-57
1.42839e-57
8.01152e-57
8.01152e-57
8.01152e-57
8.01152e-57
4.33028e-56
4.33028e-56
4.33028e-56
4.33028e-56
2.2553e-55
2.2553e-55
2.2553e-55
2.2553e-55
1.13173e-54
1.13173e-54
1.13173e-54
1.13173e-54
5.4712e-54
5.4712e-54
5.4712e-54
5.4712e-54
2.54795e-53
2.54795e-53
2.54795e-53
2.54795e-53
1.14295e-52
1.14295e-52
1.14295e-52
1.14295e-52
4.93803e-52
4.93803e-52
4.93803e-52
4.93803e-52
2.05463e-51
2.05463e-51
2.05463e-51
2.05463e-51
8.23251e-51
8.23251e-51
8.23251e-51
8.23251e-51
3.17625e-50
3.17625e-50
3.17625e-50
3.17625e-50
1.17991e-49
1.17991e-49
1.17991e-49
1.17991e-49
4.21989e-49
4.21989e-49
4.21989e-49
4.21989e-49
1.45292e-48
1.45292e-48
1.45292e-48
1.45292e-48
4.81546e-48
4.81546e-48
4.81546e-48
4.81546e-48
1.53625e-47
1.53625e-47
1.53625e-47
1.53625e-47
4.71722e-47
4.71722e-47
4.71722e-47
4.71722e-47
1.39406e-46
1.39406e-46
1.39406e-46
1.39406e-46
3.9648e-46
3.9648e-46
3.9648e-46
3.9648e-46
1.08513e-45
1.08513e-45
1.08513e-45
1.08513e-45
2.85789e-45
2.85789e-45
2.85789e-45
2.85789e-45
7.24329e-45
7.24329e-45
7.24329e-45
7.24329e-45
1.7677e-44
1.7677e-44
1.7677e-44
1.7677e-44
4.16647e-44
4.16647e-44
4.16647e-44
4.16647e-44
9.59297e-44
9.59297e-44
9.59297e-44
9.59297e-44
2.22329e-43
2.22329e-43
2.22329e-43
2.22329e-43
5.12349e-43
5.12349e-43
5.12349e-43
5.12349e-43
1.1353e-42
1.1353e-42
1.1353e-42
1.1353e-42
2.41886e-42
2.41886e-42
2.41886e-42
2.41886e-42
4.95504e-42
4.95504e-42
4.95504e-42
4.95504e-42
9.75905e-42
9.75905e-42
9.75905e-42
9.75905e-42
1.84929e-41
1.84929e-41
1.84929e-41
1.84929e-41
3.474e-41
3.474e-41
3.474e-41
3.474e-41
1.21522e-40
1.21522e-40
1.21522e-40
1.21522e-40
2.76419e-39
2.76419e-39
2.76419e-39
2.76419e-39
8.13359e-38
8.13359e-38
8.13359e-38
8.13359e-38
1.62678e-36
1.62678e-36
1.62678e-36
1.62678e-36
1.79739e-35
1.79739e-35
1.79739e-35
1.79739e-35
6.95177e-35
6.95177e-35
6.95177e-35
6.95177e-35
2.44683e-34
2.44683e-34
2.44683e-34
2.44683e-34
7.89592e-34
7.89592e-34
7.89592e-34
7.89592e-34
2.27605e-33
2.27605e-33
2.27605e-33
2.27605e-33
4.74999e-33
4.74999e-33
4.74999e-33
4.74999e-33
8.84482e-35
8.84482e-35
8.84482e-35
8.84482e-35
1.78781e-34
1.78781e-34
1.78781e-34
1.78781e-34
3.08435e-36
3.08435e-36
3.08435e-36
3.08435e-36
6.08966e-36
6.08966e-36
6.08966e-36
6.08966e-36
7.81676e-38
7.81676e-38
7.81676e-38
7.81676e-38
2.23864e-39
2.23864e-39
2.23864e-39
2.23864e-39
2.07177e-39
2.07177e-39
2.07177e-39
2.07177e-39
1.84539e-39
1.84539e-39
1.84539e-39
1.84539e-39
1.57941e-39
1.57941e-39
1.57941e-39
1.57941e-39
1.29884e-39
1.29884e-39
1.29884e-39
1.29884e-39
1.02628e-39
1.02628e-39
1.02628e-39
1.02628e-39
7.79138e-40
7.79138e-40
7.79138e-40
7.79138e-40
5.68326e-40
5.68326e-40
5.68326e-40
5.68326e-40
3.98299e-40
3.98299e-40
3.98299e-40
3.98299e-40
2.68191e-40
2.68191e-40
2.68191e-40
2.68191e-40
1.73498e-40
1.73498e-40
1.73498e-40
1.73498e-40
1.07835e-40
1.07835e-40
1.07835e-40
1.07835e-40
6.43914e-41
6.43914e-41
6.43914e-41
6.43914e-41
3.69403e-41
3.69403e-41
3.69403e-41
3.69403e-41
2.03596e-41
2.03596e-41
2.03596e-41
2.03596e-41
1.07804e-41
1.07804e-41
1.07804e-41
1.07804e-41
5.48386e-42
5.48386e-42
5.48386e-42
5.48386e-42
2.67993e-42
2.67993e-42
2.67993e-42
2.67993e-42
1.25818e-42
1.25818e-42
1.25818e-42
1.25818e-42
5.6747e-43
5.6747e-43
5.6747e-43
5.6747e-43
2.45876e-43
2.45876e-43
2.45876e-43
2.45876e-43
1.02344e-43
1.02344e-43
1.02344e-43
1.02344e-43
4.09239e-44
4.09239e-44
4.09239e-44
4.09239e-44
1.57201e-44
1.57201e-44
1.57201e-44
1.57201e-44
5.79968e-45
5.79968e-45
5.79968e-45
5.79968e-45
2.04434e-45
2.04434e-45
2.04434e-45
2.04434e-45
6.2692e-46
6.2692e-46
6.2692e-46
6.2692e-46
2.47388e-79
2.47388e-79
2.47388e-79
2.47388e-79
5.44574e-78
5.44574e-78
5.44574e-78
5.44574e-78
6.9423e-77
6.9423e-77
6.9423e-77
6.9423e-77
8.55315e-76
8.55315e-76
8.55315e-76
8.55315e-76
1.01826e-74
1.01826e-74
1.01826e-74
1.01826e-74
1.17123e-73
1.17123e-73
1.17123e-73
1.17123e-73
1.3014e-72
1.3014e-72
1.3014e-72
1.3014e-72
1.39668e-71
1.39668e-71
1.39668e-71
1.39668e-71
1.44759e-70
1.44759e-70
1.44759e-70
1.44759e-70
1.44874e-69
1.44874e-69
1.44874e-69
1.44874e-69
1.39982e-68
1.39982e-68
1.39982e-68
1.39982e-68
1.30567e-67
1.30567e-67
1.30567e-67
1.30567e-67
1.17547e-66
1.17547e-66
1.17547e-66
1.17547e-66
1.0213e-65
1.0213e-65
1.0213e-65
1.0213e-65
8.56246e-65
8.56246e-65
8.56246e-65
8.56246e-65
6.92617e-64
6.92617e-64
6.92617e-64
6.92617e-64
5.40482e-63
5.40482e-63
5.40482e-63
5.40482e-63
4.06828e-62
4.06828e-62
4.06828e-62
4.06828e-62
2.95344e-61
2.95344e-61
2.95344e-61
2.95344e-61
2.06768e-60
2.06768e-60
2.06768e-60
2.06768e-60
1.3958e-59
1.3958e-59
1.3958e-59
1.3958e-59
9.08454e-59
9.08454e-59
9.08454e-59
9.08454e-59
5.69995e-58
5.69995e-58
5.69995e-58
5.69995e-58
3.44732e-57
3.44732e-57
3.44732e-57
3.44732e-57
2.0095e-56
2.0095e-56
2.0095e-56
2.0095e-56
1.12888e-55
1.12888e-55
1.12888e-55
1.12888e-55
6.11103e-55
6.11103e-55
6.11103e-55
6.11103e-55
3.18748e-54
3.18748e-54
3.18748e-54
3.18748e-54
1.60179e-53
1.60179e-53
1.60179e-53
1.60179e-53
7.75442e-53
7.75442e-53
7.75442e-53
7.75442e-53
3.61608e-52
3.61608e-52
3.61608e-52
3.61608e-52
1.62418e-51
1.62418e-51
1.62418e-51
1.62418e-51
7.0259e-51
7.0259e-51
7.0259e-51
7.0259e-51
2.92687e-50
2.92687e-50
2.92687e-50
2.92687e-50
1.1741e-49
1.1741e-49
1.1741e-49
1.1741e-49
4.53497e-49
4.53497e-49
4.53497e-49
4.53497e-49
1.68646e-48
1.68646e-48
1.68646e-48
1.68646e-48
6.03783e-48
6.03783e-48
6.03783e-48
6.03783e-48
2.08093e-47
2.08093e-47
2.08093e-47
2.08093e-47
6.90356e-47
6.90356e-47
6.90356e-47
6.90356e-47
2.20446e-46
2.20446e-46
2.20446e-46
2.20446e-46
6.77509e-46
6.77509e-46
6.77509e-46
6.77509e-46
2.00394e-45
2.00394e-45
2.00394e-45
2.00394e-45
5.7041e-45
5.7041e-45
5.7041e-45
5.7041e-45
1.56241e-44
1.56241e-44
1.56241e-44
1.56241e-44
4.11806e-44
4.11806e-44
4.11806e-44
4.11806e-44
1.04447e-43
1.04447e-43
1.04447e-43
1.04447e-43
2.5506e-43
2.5506e-43
2.5506e-43
2.5506e-43
6.01361e-43
6.01361e-43
6.01361e-43
6.01361e-43
1.38373e-42
1.38373e-42
1.38373e-42
1.38373e-42
3.19884e-42
3.19884e-42
3.19884e-42
3.19884e-42
7.34399e-42
7.34399e-42
7.34399e-42
7.34399e-42
1.62125e-41
1.62125e-41
1.62125e-41
1.62125e-41
3.44135e-41
3.44135e-41
3.44135e-41
3.44135e-41
7.02346e-41
7.02346e-41
7.02346e-41
7.02346e-41
1.37889e-40
1.37889e-40
1.37889e-40
1.37889e-40
2.66451e-40
2.66451e-40
2.66451e-40
2.66451e-40
9.00679e-40
9.00679e-40
9.00679e-40
9.00679e-40
2.29348e-38
2.29348e-38
2.29348e-38
2.29348e-38
8.63134e-37
8.63134e-37
8.63134e-37
8.63134e-37
2.42373e-35
2.42373e-35
2.42373e-35
2.42373e-35
4.51553e-34
4.51553e-34
4.51553e-34
4.51553e-34
4.66587e-33
4.66587e-33
4.66587e-33
4.66587e-33
1.67401e-32
1.67401e-32
1.67401e-32
1.67401e-32
5.49311e-32
5.49311e-32
5.49311e-32
5.49311e-32
1.6599e-31
1.6599e-31
1.6599e-31
1.6599e-31
4.49776e-31
4.49776e-31
4.49776e-31
4.49776e-31
8.85554e-31
8.85554e-31
8.85554e-31
8.85554e-31
1.73204e-32
1.73204e-32
1.73204e-32
1.73204e-32
3.31581e-32
3.31581e-32
3.31581e-32
3.31581e-32
6.06308e-34
6.06308e-34
6.06308e-34
6.06308e-34
1.13753e-33
1.13753e-33
1.13753e-33
1.13753e-33
1.5125e-35
1.5125e-35
1.5125e-35
1.5125e-35
3.04814e-38
3.04814e-38
3.04814e-38
3.04814e-38
2.73373e-38
2.73373e-38
2.73373e-38
2.73373e-38
2.42673e-38
2.42673e-38
2.42673e-38
2.42673e-38
2.06994e-38
2.06994e-38
2.06994e-38
2.06994e-38
1.69651e-38
1.69651e-38
1.69651e-38
1.69651e-38
1.33601e-38
1.33601e-38
1.33601e-38
1.33601e-38
1.01091e-38
1.01091e-38
1.01091e-38
1.01091e-38
7.34947e-39
7.34947e-39
7.34947e-39
7.34947e-39
5.13377e-39
5.13377e-39
5.13377e-39
5.13377e-39
3.44546e-39
3.44546e-39
3.44546e-39
3.44546e-39
2.22169e-39
2.22169e-39
2.22169e-39
2.22169e-39
1.37639e-39
1.37639e-39
1.37639e-39
1.37639e-39
8.19241e-40
8.19241e-40
8.19241e-40
8.19241e-40
4.68482e-40
4.68482e-40
4.68482e-40
4.68482e-40
2.57383e-40
2.57383e-40
2.57383e-40
2.57383e-40
1.35853e-40
1.35853e-40
1.35853e-40
1.35853e-40
6.889e-41
6.889e-41
6.889e-41
6.889e-41
3.35611e-41
3.35611e-41
3.35611e-41
3.35611e-41
1.57075e-41
1.57075e-41
1.57075e-41
1.57075e-41
7.06258e-42
7.06258e-42
7.06258e-42
7.06258e-42
3.05072e-42
3.05072e-42
3.05072e-42
3.05072e-42
1.26597e-42
1.26597e-42
1.26597e-42
1.26597e-42
5.04685e-43
5.04685e-43
5.04685e-43
5.04685e-43
1.93281e-43
1.93281e-43
1.93281e-43
1.93281e-43
7.10953e-44
7.10953e-44
7.10953e-44
7.10953e-44
2.49913e-44
2.49913e-44
2.49913e-44
2.49913e-44
7.65667e-45
7.65667e-45
7.65667e-45
7.65667e-45
3.1601e-78
3.1601e-78
3.1601e-78
3.1601e-78
6.96966e-77
6.96966e-77
6.96966e-77
6.96966e-77
8.91341e-76
8.91341e-76
8.91341e-76
8.91341e-76
1.10158e-74
1.10158e-74
1.10158e-74
1.10158e-74
1.31543e-73
1.31543e-73
1.31543e-73
1.31543e-73
1.5175e-72
1.5175e-72
1.5175e-72
1.5175e-72
1.691e-71
1.691e-71
1.691e-71
1.691e-71
1.81988e-70
1.81988e-70
1.81988e-70
1.81988e-70
1.89133e-69
1.89133e-69
1.89133e-69
1.89133e-69
1.89784e-68
1.89784e-68
1.89784e-68
1.89784e-68
1.83846e-67
1.83846e-67
1.83846e-67
1.83846e-67
1.71908e-66
1.71908e-66
1.71908e-66
1.71908e-66
1.5514e-65
1.5514e-65
1.5514e-65
1.5514e-65
1.35108e-64
1.35108e-64
1.35108e-64
1.35108e-64
1.13531e-63
1.13531e-63
1.13531e-63
1.13531e-63
9.2038e-63
9.2038e-63
9.2038e-63
9.2038e-63
7.19755e-62
7.19755e-62
7.19755e-62
7.19755e-62
5.42892e-61
5.42892e-61
5.42892e-61
5.42892e-61
3.94914e-60
3.94914e-60
3.94914e-60
3.94914e-60
2.77014e-59