# vtk DataFile Version 2.0
dg(0) output generated by Nextsim
ASCII
DATASET UNSTRUCTURED_GRID
FIELD FieldData 1
TIME 1 1 double
0
POINTS 40000 DOUBLE
0	0	0
0.01	0	0
0.01	0.01	0
0	0.01	0
0.01	0	0
0.02	0	0
0.02	0.01	0
0.01	0.01	0
0.02	0	0
0.03	0	0
0.03	0.01	0
0.02	0.01	0
0.03	0	0
0.04	0	0
0.04	0.01	0
0.03	0.01	0
0.04	0	0
0.05	0	0
0.05	0.01	0
0.04	0.01	0
0.05	0	0
0.06	0	0
0.06	0.01	0
0.05	0.01	0
0.06	0	0
0.07	0	0
0.07	0.01	0
0.06	0.01	0
0.07	0	0
0.08	0	0
0.08	0.01	0
0.07	0.01	0
0.08	0	0
0.09	0	0
0.09	0.01	0
0.08	0.01	0
0.09	0	0
0.1	0	0
0.1	0.01	0
0.09	0.01	0
0.1	0	0
0.11	0	0
0.11	0.01	0
0.1	0.01	0
0.11	0	0
0.12	0	0
0.12	0.01	0
0.11	0.01	0
0.12	0	0
0.13	0	0
0.13	0.01	0
0.12	0.01	0
0.13	0	0
0.14	0	0
0.14	0.01	0
0.13	0.01	0
0.14	0	0
0.15	0	0
0.15	0.01	0
0.14	0.01	0
0.15	0	0
0.16	0	0
0.16	0.01	0
0.15	0.01	0
0.16	0	0
0.17	0	0
0.17	0.01	0
0.16	0.01	0
0.17	0	0
0.18	0	0
0.18	0.01	0
0.17	0.01	0
0.18	0	0
0.19	0	0
0.19	0.01	0
0.18	0.01	0
0.19	0	0
0.2	0	0
0.2	0.01	0
0.19	0.01	0
0.2	0	0
0.21	0	0
0.21	0.01	0
0.2	0.01	0
0.21	0	0
0.22	0	0
0.22	0.01	0
0.21	0.01	0
0.22	0	0
0.23	0	0
0.23	0.01	0
0.22	0.01	0
0.23	0	0
0.24	0	0
0.24	0.01	0
0.23	0.01	0
0.24	0	0
0.25	0	0
0.25	0.01	0
0.24	0.01	0
0.25	0	0
0.26	0	0
0.26	0.01	0
0.25	0.01	0
0.26	0	0
0.27	0	0
0.27	0.01	0
0.26	0.01	0
0.27	0	0
0.28	0	0
0.28	0.01	0
0.27	0.01	0
0.28	0	0
0.29	0	0
0.29	0.01	0
0.28	0.01	0
0.29	0	0
0.3	0	0
0.3	0.01	0
0.29	0.01	0
0.3	0	0
0.31	0	0
0.31	0.01	0
0.3	0.01	0
0.31	0	0
0.32	0	0
0.32	0.01	0
0.31	0.01	0
0.32	0	0
0.33	0	0
0.33	0.01	0
0.32	0.01	0
0.33	0	0
0.34	0	0
0.34	0.01	0
0.33	0.01	0
0.34	0	0
0.35	0	0
0.35	0.01	0
0.34	0.01	0
0.35	0	0
0.36	0	0
0.36	0.01	0
0.35	0.01	0
0.36	0	0
0.37	0	0
0.37	0.01	0
0.36	0.01	0
0.37	0	0
0.38	0	0
0.38	0.01	0
0.37	0.01	0
0.38	0	0
0.39	0	0
0.39	0.01	0
0.38	0.01	0
0.39	0	0
0.4	0	0
0.4	0.01	0
0.39	0.01	0
0.4	0	0
0.41	0	0
0.41	0.01	0
0.4	0.01	0
0.41	0	0
0.42	0	0
0.42	0.01	0
0.41	0.01	0
0.42	0	0
0.43	0	0
0.43	0.01	0
0.42	0.01	0
0.43	0	0
0.44	0	0
0.44	0.01	0
0.43	0.01	0
0.44	0	0
0.45	0	0
0.45	0.01	0
0.44	0.01	0
0.45	0	0
0.46	0	0
0.46	0.01	0
0.45	0.01	0
0.46	0	0
0.47	0	0
0.47	0.01	0
0.46	0.01	0
0.47	0	0
0.48	0	0
0.48	0.01	0
0.47	0.01	0
0.48	0	0
0.49	0	0
0.49	0.01	0
0.48	0.01	0
0.49	0	0
0.5	0	0
0.5	0.01	0
0.49	0.01	0
0.5	0	0
0.51	0	0
0.51	0.01	0
0.5	0.01	0
0.51	0	0
0.52	0	0
0.52	0.01	0
0.51	0.01	0
0.52	0	0
0.53	0	0
0.53	0.01	0
0.52	0.01	0
0.53	0	0
0.54	0	0
0.54	0.01	0
0.53	0.01	0
0.54	0	0
0.55	0	0
0.55	0.01	0
0.54	0.01	0
0.55	0	0
0.56	0	0
0.56	0.01	0
0.55	0.01	0
0.56	0	0
0.57	0	0
0.57	0.01	0
0.56	0.01	0
0.57	0	0
0.58	0	0
0.58	0.01	0
0.57	0.01	0
0.58	0	0
0.59	0	0
0.59	0.01	0
0.58	0.01	0
0.59	0	0
0.6	0	0
0.6	0.01	0
0.59	0.01	0
0.6	0	0
0.61	0	0
0.61	0.01	0
0.6	0.01	0
0.61	0	0
0.62	0	0
0.62	0.01	0
0.61	0.01	0
0.62	0	0
0.63	0	0
0.63	0.01	0
0.62	0.01	0
0.63	0	0
0.64	0	0
0.64	0.01	0
0.63	0.01	0
0.64	0	0
0.65	0	0
0.65	0.01	0
0.64	0.01	0
0.65	0	0
0.66	0	0
0.66	0.01	0
0.65	0.01	0
0.66	0	0
0.67	0	0
0.67	0.01	0
0.66	0.01	0
0.67	0	0
0.68	0	0
0.68	0.01	0
0.67	0.01	0
0.68	0	0
0.69	0	0
0.69	0.01	0
0.68	0.01	0
0.69	0	0
0.7	0	0
0.7	0.01	0
0.69	0.01	0
0.7	0	0
0.71	0	0
0.71	0.01	0
0.7	0.01	0
0.71	0	0
0.72	0	0
0.72	0.01	0
0.71	0.01	0
0.72	0	0
0.73	0	0
0.73	0.01	0
0.72	0.01	0
0.73	0	0
0.74	0	0
0.74	0.01	0
0.73	0.01	0
0.74	0	0
0.75	0	0
0.75	0.01	0
0.74	0.01	0
0.75	0	0
0.76	0	0
0.76	0.01	0
0.75	0.01	0
0.76	0	0
0.77	0	0
0.77	0.01	0
0.76	0.01	0
0.77	0	0
0.78	0	0
0.78	0.01	0
0.77	0.01	0
0.78	0	0
0.79	0	0
0.79	0.01	0
0.78	0.01	0
0.79	0	0
0.8	0	0
0.8	0.01	0
0.79	0.01	0
0.8	0	0
0.81	0	0
0.81	0.01	0
0.8	0.01	0
0.81	0	0
0.82	0	0
0.82	0.01	0
0.81	0.01	0
0.82	0	0
0.83	0	0
0.83	0.01	0
0.82	0.01	0
0.83	0	0
0.84	0	0
0.84	0.01	0
0.83	0.01	0
0.84	0	0
0.85	0	0
0.85	0.01	0
0.84	0.01	0
0.85	0	0
0.86	0	0
0.86	0.01	0
0.85	0.01	0
0.86	0	0
0.87	0	0
0.87	0.01	0
0.86	0.01	0
0.87	0	0
0.88	0	0
0.88	0.01	0
0.87	0.01	0
0.88	0	0
0.89	0	0
0.89	0.01	0
0.88	0.01	0
0.89	0	0
0.9	0	0
0.9	0.01	0
0.89	0.01	0
0.9	0	0
0.91	0	0
0.91	0.01	0
0.9	0.01	0
0.91	0	0
0.92	0	0
0.92	0.01	0
0.91	0.01	0
0.92	0	0
0.93	0	0
0.93	0.01	0
0.92	0.01	0
0.93	0	0
0.94	0	0
0.94	0.01	0
0.93	0.01	0
0.94	0	0
0.95	0	0
0.95	0.01	0
0.94	0.01	0
0.95	0	0
0.96	0	0
0.96	0.01	0
0.95	0.01	0
0.96	0	0
0.97	0	0
0.97	0.01	0
0.96	0.01	0
0.97	0	0
0.98	0	0
0.98	0.01	0
0.97	0.01	0
0.98	0	0
0.99	0	0
0.99	0.01	0
0.98	0.01	0
0.99	0	0
1	0	0
1	0.01	0
0.99	0.01	0
0	0.01	0
0.01	0.01	0
0.01	0.02	0
0	0.02	0
0.01	0.01	0
0.02	0.01	0
0.02	0.02	0
0.01	0.02	0
0.02	0.01	0
0.03	0.01	0
0.03	0.02	0
0.02	0.02	0
0.03	0.01	0
0.04	0.01	0
0.04	0.02	0
0.03	0.02	0
0.04	0.01	0
0.05	0.01	0
0.05	0.02	0
0.04	0.02	0
0.05	0.01	0
0.06	0.01	0
0.06	0.02	0
0.05	0.02	0
0.06	0.01	0
0.07	0.01	0
0.07	0.02	0
0.06	0.02	0
0.07	0.01	0
0.08	0.01	0
0.08	0.02	0
0.07	0.02	0
0.08	0.01	0
0.09	0.01	0
0.09	0.02	0
0.08	0.02	0
0.09	0.01	0
0.1	0.01	0
0.1	0.02	0
0.09	0.02	0
0.1	0.01	0
0.11	0.01	0
0.11	0.02	0
0.1	0.02	0
0.11	0.01	0
0.12	0.01	0
0.12	0.02	0
0.11	0.02	0
0.12	0.01	0
0.13	0.01	0
0.13	0.02	0
0.12	0.02	0
0.13	0.01	0
0.14	0.01	0
0.14	0.02	0
0.13	0.02	0
0.14	0.01	0
0.15	0.01	0
0.15	0.02	0
0.14	0.02	0
0.15	0.01	0
0.16	0.01	0
0.16	0.02	0
0.15	0.02	0
0.16	0.01	0
0.17	0.01	0
0.17	0.02	0
0.16	0.02	0
0.17	0.01	0
0.18	0.01	0
0.18	0.02	0
0.17	0.02	0
0.18	0.01	0
0.19	0.01	0
0.19	0.02	0
0.18	0.02	0
0.19	0.01	0
0.2	0.01	0
0.2	0.02	0
0.19	0.02	0
0.2	0.01	0
0.21	0.01	0
0.21	0.02	0
0.2	0.02	0
0.21	0.01	0
0.22	0.01	0
0.22	0.02	0
0.21	0.02	0
0.22	0.01	0
0.23	0.01	0
0.23	0.02	0
0.22	0.02	0
0.23	0.01	0
0.24	0.01	0
0.24	0.02	0
0.23	0.02	0
0.24	0.01	0
0.25	0.01	0
0.25	0.02	0
0.24	0.02	0
0.25	0.01	0
0.26	0.01	0
0.26	0.02	0
0.25	0.02	0
0.26	0.01	0
0.27	0.01	0
0.27	0.02	0
0.26	0.02	0
0.27	0.01	0
0.28	0.01	0
0.28	0.02	0
0.27	0.02	0
0.28	0.01	0
0.29	0.01	0
0.29	0.02	0
0.28	0.02	0
0.29	0.01	0
0.3	0.01	0
0.3	0.02	0
0.29	0.02	0
0.3	0.01	0
0.31	0.01	0
0.31	0.02	0
0.3	0.02	0
0.31	0.01	0
0.32	0.01	0
0.32	0.02	0
0.31	0.02	0
0.32	0.01	0
0.33	0.01	0
0.33	0.02	0
0.32	0.02	0
0.33	0.01	0
0.34	0.01	0
0.34	0.02	0
0.33	0.02	0
0.34	0.01	0
0.35	0.01	0
0.35	0.02	0
0.34	0.02	0
0.35	0.01	0
0.36	0.01	0
0.36	0.02	0
0.35	0.02	0
0.36	0.01	0
0.37	0.01	0
0.37	0.02	0
0.36	0.02	0
0.37	0.01	0
0.38	0.01	0
0.38	0.02	0
0.37	0.02	0
0.38	0.01	0
0.39	0.01	0
0.39	0.02	0
0.38	0.02	0
0.39	0.01	0
0.4	0.01	0
0.4	0.02	0
0.39	0.02	0
0.4	0.01	0
0.41	0.01	0
0.41	0.02	0
0.4	0.02	0
0.41	0.01	0
0.42	0.01	0
0.42	0.02	0
0.41	0.02	0
0.42	0.01	0
0.43	0.01	0
0.43	0.02	0
0.42	0.02	0
0.43	0.01	0
0.44	0.01	0
0.44	0.02	0
0.43	0.02	0
0.44	0.01	0
0.45	0.01	0
0.45	0.02	0
0.44	0.02	0
0.45	0.01	0
0.46	0.01	0
0.46	0.02	0
0.45	0.02	0
0.46	0.01	0
0.47	0.01	0
0.47	0.02	0
0.46	0.02	0
0.47	0.01	0
0.48	0.01	0
0.48	0.02	0
0.47	0.02	0
0.48	0.01	0
0.49	0.01	0
0.49	0.02	0
0.48	0.02	0
0.49	0.01	0
0.5	0.01	0
0.5	0.02	0
0.49	0.02	0
0.5	0.01	0
0.51	0.01	0
0.51	0.02	0
0.5	0.02	0
0.51	0.01	0
0.52	0.01	0
0.52	0.02	0
0.51	0.02	0
0.52	0.01	0
0.53	0.01	0
0.53	0.02	0
0.52	0.02	0
0.53	0.01	0
0.54	0.01	0
0.54	0.02	0
0.53	0.02	0
0.54	0.01	0
0.55	0.01	0
0.55	0.02	0
0.54	0.02	0
0.55	0.01	0
0.56	0.01	0
0.56	0.02	0
0.55	0.02	0
0.56	0.01	0
0.57	0.01	0
0.57	0.02	0
0.56	0.02	0
0.57	0.01	0
0.58	0.01	0
0.58	0.02	0
0.57	0.02	0
0.58	0.01	0
0.59	0.01	0
0.59	0.02	0
0.58	0.02	0
0.59	0.01	0
0.6	0.01	0
0.6	0.02	0
0.59	0.02	0
0.6	0.01	0
0.61	0.01	0
0.61	0.02	0
0.6	0.02	0
0.61	0.01	0
0.62	0.01	0
0.62	0.02	0
0.61	0.02	0
0.62	0.01	0
0.63	0.01	0
0.63	0.02	0
0.62	0.02	0
0.63	0.01	0
0.64	0.01	0
0.64	0.02	0
0.63	0.02	0
0.64	0.01	0
0.65	0.01	0
0.65	0.02	0
0.64	0.02	0
0.65	0.01	0
0.66	0.01	0
0.66	0.02	0
0.65	0.02	0
0.66	0.01	0
0.67	0.01	0
0.67	0.02	0
0.66	0.02	0
0.67	0.01	0
0.68	0.01	0
0.68	0.02	0
0.67	0.02	0
0.68	0.01	0
0.69	0.01	0
0.69	0.02	0
0.68	0.02	0
0.69	0.01	0
0.7	0.01	0
0.7	0.02	0
0.69	0.02	0
0.7	0.01	0
0.71	0.01	0
0.71	0.02	0
0.7	0.02	0
0.71	0.01	0
0.72	0.01	0
0.72	0.02	0
0.71	0.02	0
0.72	0.01	0
0.73	0.01	0
0.73	0.02	0
0.72	0.02	0
0.73	0.01	0
0.74	0.01	0
0.74	0.02	0
0.73	0.02	0
0.74	0.01	0
0.75	0.01	0
0.75	0.02	0
0.74	0.02	0
0.75	0.01	0
0.76	0.01	0
0.76	0.02	0
0.75	0.02	0
0.76	0.01	0
0.77	0.01	0
0.77	0.02	0
0.76	0.02	0
0.77	0.01	0
0.78	0.01	0
0.78	0.02	0
0.77	0.02	0
0.78	0.01	0
0.79	0.01	0
0.79	0.02	0
0.78	0.02	0
0.79	0.01	0
0.8	0.01	0
0.8	0.02	0
0.79	0.02	0
0.8	0.01	0
0.81	0.01	0
0.81	0.02	0
0.8	0.02	0
0.81	0.01	0
0.82	0.01	0
0.82	0.02	0
0.81	0.02	0
0.82	0.01	0
0.83	0.01	0
0.83	0.02	0
0.82	0.02	0
0.83	0.01	0
0.84	0.01	0
0.84	0.02	0
0.83	0.02	0
0.84	0.01	0
0.85	0.01	0
0.85	0.02	0
0.84	0.02	0
0.85	0.01	0
0.86	0.01	0
0.86	0.02	0
0.85	0.02	0
0.86	0.01	0
0.87	0.01	0
0.87	0.02	0
0.86	0.02	0
0.87	0.01	0
0.88	0.01	0
0.88	0.02	0
0.87	0.02	0
0.88	0.01	0
0.89	0.01	0
0.89	0.02	0
0.88	0.02	0
0.89	0.01	0
0.9	0.01	0
0.9	0.02	0
0.89	0.02	0
0.9	0.01	0
0.91	0.01	0
0.91	0.02	0
0.9	0.02	0
0.91	0.01	0
0.92	0.01	0
0.92	0.02	0
0.91	0.02	0
0.92	0.01	0
0.93	0.01	0
0.93	0.02	0
0.92	0.02	0
0.93	0.01	0
0.94	0.01	0
0.94	0.02	0
0.93	0.02	0
0.94	0.01	0
0.95	0.01	0
0.95	0.02	0
0.94	0.02	0
0.95	0.01	0
0.96	0.01	0
0.96	0.02	0
0.95	0.02	0
0.96	0.01	0
0.97	0.01	0
0.97	0.02	0
0.96	0.02	0
0.97	0.01	0
0.98	0.01	0
0.98	0.02	0
0.97	0.02	0
0.98	0.01	0
0.99	0.01	0
0.99	0.02	0
0.98	0.02	0
0.99	0.01	0
1	0.01	0
1	0.02	0
0.99	0.02	0
0	0.02	0
0.01	0.02	0
0.01	0.03	0
0	0.03	0
0.01	0.02	0
0.02	0.02	0
0.02	0.03	0
0.01	0.03	0
0.02	0.02	0
0.03	0.02	0
0.03	0.03	0
0.02	0.03	0
0.03	0.02	0
0.04	0.02	0
0.04	0.03	0
0.03	0.03	0
0.04	0.02	0
0.05	0.02	0
0.05	0.03	0
0.04	0.03	0
0.05	0.02	0
0.06	0.02	0
0.06	0.03	0
0.05	0.03	0
0.06	0.02	0
0.07	0.02	0
0.07	0.03	0
0.06	0.03	0
0.07	0.02	0
0.08	0.02	0
0.08	0.03	0
0.07	0.03	0
0.08	0.02	0
0.09	0.02	0
0.09	0.03	0
0.08	0.03	0
0.09	0.02	0
0.1	0.02	0
0.1	0.03	0
0.09	0.03	0
0.1	0.02	0
0.11	0.02	0
0.11	0.03	0
0.1	0.03	0
0.11	0.02	0
0.12	0.02	0
0.12	0.03	0
0.11	0.03	0
0.12	0.02	0
0.13	0.02	0
0.13	0.03	0
0.12	0.03	0
0.13	0.02	0
0.14	0.02	0
0.14	0.03	0
0.13	0.03	0
0.14	0.02	0
0.15	0.02	0
0.15	0.03	0
0.14	0.03	0
0.15	0.02	0
0.16	0.02	0
0.16	0.03	0
0.15	0.03	0
0.16	0.02	0
0.17	0.02	0
0.17	0.03	0
0.16	0.03	0
0.17	0.02	0
0.18	0.02	0
0.18	0.03	0
0.17	0.03	0
0.18	0.02	0
0.19	0.02	0
0.19	0.03	0
0.18	0.03	0
0.19	0.02	0
0.2	0.02	0
0.2	0.03	0
[...]
POINT_DATA 40000
SCALARS dg0 DOUBLE 
LOOKUP_TABLE default
2.67183e-80
2.67183e-80
2.67183e-80
2.67183e-80
5.23396e-79
5.23396e-79
5.23396e-79
5.23396e-79
5.45195e-78
5.45195e-78
5.45195e-78
5.45195e-78
5.51677e-77
5.51677e-77
5.51677e-77
5.51677e-77
5.42173e-76
5.42173e-76
5.42173e-76
5.42173e-76
5.17392e-75
5.17392e-75
5.17392e-75
5.17392e-75
4.79336e-74
4.79336e-74
4.79336e-74
4.79336e-74
4.3103e-73
4.3103e-73
4.3103e-73
4.3103e-73
3.76123e-72
3.76123e-72
3.76123e-72
3.76123e-72
3.18433e-71
3.18433e-71
3.18433e-71
3.18433e-71
2.61506e-70
2.61506e-70
2.61506e-70
2.61506e-70
2.08271e-69
2.08271e-69
2.08271e-69
2.08271e-69
1.60832e-68
1.60832e-68
1.60832e-68
1.60832e-68
1.20398e-67
1.20398e-67
1.20398e-67
1.20398e-67
8.73548e-67
8.73548e-67
8.73548e-67
8.73548e-67
6.14161e-66
6.14161e-66
6.14161e-66
6.14161e-66
4.1833e-65
4.1833e-65
4.1833e-65
4.1833e-65
2.76002e-64
2.76002e-64
2.76002e-64
2.76002e-64
1.76349e-63
1.76349e-63
1.76349e-63
1.76349e-63
1.09099e-62
1.09099e-62
1.09099e-62
1.09099e-62
6.53381e-62
6.53381e-62
6.53381e-62
6.53381e-62
3.78731e-61
3.78731e-61
3.78731e-61
3.78731e-61
2.12437e-60
2.12437e-60
2.12437e-60
2.12437e-60
1.15288e-59
1.15288e-59
1.15288e-59
1.15288e-59
6.05215e-59
6.05215e-59
6.05215e-59
6.05215e-59
3.07278e-58
3.07278e-58
3.07278e-58
3.07278e-58
1.50859e-57
1.50859e-57
1.50859e-57
1.50859e-57
7.16061e-57
7.16061e-57
7.16061e-57
7.16061e-57
3.28545e-56
3.28545e-56
3.28545e-56
3.28545e-56
1.4569e-55
1.4569e-55
1.4569e-55
1.4569e-55
6.24288e-55
6.24288e-55
6.24288e-55
6.24288e-55
2.58456e-54
2.58456e-54
2.58456e-54
2.58456e-54
1.03363e-53
1.03363e-53
1.03363e-53
1.03363e-53
3.99254e-53
3.99254e-53
3.99254e-53
3.99254e-53
1.48928e-52
1.48928e-52
1.48928e-52
1.48928e-52
5.36383e-52
5.36383e-52
5.36383e-52
5.36383e-52
1.86502e-51
1.86502e-51
1.86502e-51
1.86502e-51
6.25949e-51
6.25949e-51
6.25949e-51
6.25949e-51
2.02758e-50
2.02758e-50
2.02758e-50
2.02758e-50
6.33783e-50
6.33783e-50
6.33783e-50
6.33783e-50
1.91147e-49
1.91147e-49
1.91147e-49
1.91147e-49
5.56165e-49
5.56165e-49
5.56165e-49
5.56165e-49
1.56098e-48
1.56098e-48
1.56098e-48
1.56098e-48
4.22591e-48
4.22591e-48
4.22591e-48
4.22591e-48
1.10356e-47
1.10356e-47
1.10356e-47
1.10356e-47
2.78114e-47
2.78114e-47
2.78114e-47
2.78114e-47
6.77391e-47
6.77391e-47
6.77391e-47
6.77391e-47
1.60087e-46
1.60087e-46
1.60087e-46
1.60087e-46
3.70645e-46
3.70645e-46
3.70645e-46
3.70645e-46
8.6927e-46
8.6927e-46
8.6927e-46
8.6927e-46
2.71206e-45
2.71206e-45
2.71206e-45
2.71206e-45
3.2073e-44
3.2073e-44
3.2073e-44
3.2073e-44
9.5277e-43
9.5277e-43
9.5277e-43
9.5277e-43
2.90235e-41
2.90235e-41
2.90235e-41
2.90235e-41
7.90737e-40
7.90737e-40
7.90737e-40
7.90737e-40
1.88916e-38
1.88916e-38
1.88916e-38
1.88916e-38
3.9056e-37
3.9056e-37
3.9056e-37
3.9056e-37
6.87784e-36
6.87784e-36
6.87784e-36
6.87784e-36
1.01144e-34
1.01144e-34
1.01144e-34
1.01144e-34
1.21089e-33
1.21089e-33
1.21089e-33
1.21089e-33
1.14251e-32
1.14251e-32
1.14251e-32
1.14251e-32
8.17558e-32
8.17558e-32
8.17558e-32
8.17558e-32
4.30392e-31
4.30392e-31
4.30392e-31
4.30392e-31
1.72602e-30
1.72602e-30
1.72602e-30
1.72602e-30
6.14099e-30
6.14099e-30
6.14099e-30
6.14099e-30
1.86028e-29
1.86028e-29
1.86028e-29
1.86028e-29
4.30342e-29
4.30342e-29
4.30342e-29
4.30342e-29
5.72865e-29
5.72865e-29
5.72865e-29
5.72865e-29
6.41576e-30
6.41576e-30
6.41576e-30
6.41576e-30
8.2528e-30
8.2528e-30
8.2528e-30
8.2528e-30
8.82838e-31
8.82838e-31
8.82838e-31
8.82838e-31
1.09452e-30
1.09452e-30
1.09452e-30
1.09452e-30
5.1268e-32
5.1268e-32
5.1268e-32
5.1268e-32
4.13056e-35
4.13056e-35
4.13056e-35
4.13056e-35
3.11772e-38
3.11772e-38
3.11772e-38
3.11772e-38
2.17791e-40
2.17791e-40
2.17791e-40
2.17791e-40
2.07181e-40
2.07181e-40
2.07181e-40
2.07181e-40
1.89259e-40
1.89259e-40
1.89259e-40
1.89259e-40
1.66017e-40
1.66017e-40
1.66017e-40
1.66017e-40
1.39839e-40
1.39839e-40
1.39839e-40
1.39839e-40
1.13104e-40
1.13104e-40
1.13104e-40
1.13104e-40
8.78403e-41
8.78403e-41
8.78403e-41
8.78403e-41
6.55043e-41
6.55043e-41
6.55043e-41
6.55043e-41
4.69029e-41
4.69029e-41
4.69029e-41
4.69029e-41
3.22461e-41
3.22461e-41
3.22461e-41
3.22461e-41
2.12862e-41
2.12862e-41
2.12862e-41
2.12862e-41
1.34914e-41
1.34914e-41
1.34914e-41
1.34914e-41
8.21015e-42
8.21015e-42
8.21015e-42
8.21015e-42
4.79705e-42
4.79705e-42
4.79705e-42
4.79705e-42
2.69106e-42
2.69106e-42
2.69106e-42
2.69106e-42
1.44942e-42
1.44942e-42
1.44942e-42
1.44942e-42
7.49525e-43
7.49525e-43
7.49525e-43
7.49525e-43
3.7213e-43
3.7213e-43
3.7213e-43
3.7213e-43
1.77385e-43
1.77385e-43
1.77385e-43
1.77385e-43
8.118e-44
8.118e-44
8.118e-44
8.118e-44
3.56685e-44
3.56685e-44
3.56685e-44
3.56685e-44
1.50427e-44
1.50427e-44
1.50427e-44
1.50427e-44
6.07267e-45
6.07267e-45
6.07267e-45
6.07267e-45
2.28672e-45
2.28672e-45
2.28672e-45
2.28672e-45
6.65169e-46
6.65169e-46
6.65169e-46
6.65169e-46
3.71296e-79
3.71296e-79
3.71296e-79
3.71296e-79
7.29107e-78
7.29107e-78
7.29107e-78
7.29107e-78
7.62843e-77
7.62843e-77
7.62843e-77
7.62843e-77
7.75254e-76
7.75254e-76
7.75254e-76
7.75254e-76
7.65115e-75
7.65115e-75
7.65115e-75
7.65115e-75
7.33149e-74
7.33149e-74
7.33149e-74
7.33149e-74
6.81945e-73
6.81945e-73
6.81945e-73
6.81945e-73
6.15612e-72
6.15612e-72
6.15612e-72
6.15612e-72
5.39231e-71
5.39231e-71
5.39231e-71
5.39231e-71
4.58207e-70
4.58207e-70
4.58207e-70
4.58207e-70
3.77639e-69
3.77639e-69
3.77639e-69
3.77639e-69
3.01809e-68
3.01809e-68
3.01809e-68
3.01809e-68
2.33849e-67
2.33849e-67
2.33849e-67
2.33849e-67
1.75631e-66
1.75631e-66
1.75631e-66
1.75631e-66
1.27832e-65
1.27832e-65
1.27832e-65
1.27832e-65
9.01491e-65
9.01491e-65
9.01491e-65
9.01491e-65
6.15859e-64
6.15859e-64
6.15859e-64
6.15859e-64
4.07486e-63
4.07486e-63
4.07486e-63
4.07486e-63
2.61078e-62
2.61078e-62
2.61078e-62
2.61078e-62
1.61946e-61
1.61946e-61
1.61946e-61
1.61946e-61
9.72359e-61
9.72359e-61
9.72359e-61
9.72359e-61
5.65013e-60
5.65013e-60
5.65013e-60
5.65013e-60
3.17676e-59
3.17676e-59
3.17676e-59
3.17676e-59
1.72792e-58
1.72792e-58
1.72792e-58
1.72792e-58
9.09066e-58
9.09066e-58
9.09066e-58
9.09066e-58
4.62512e-57
4.62512e-57
4.62512e-57
4.62512e-57
2.27524e-56
2.27524e-56
2.27524e-56
2.27524e-56
1.08202e-55
1.08202e-55
1.08202e-55
1.08202e-55
4.97358e-55
4.97358e-55
4.97358e-55
4.97358e-55
2.20931e-54
2.20931e-54
2.20931e-54
2.20931e-54
9.48259e-54
9.48259e-54
9.48259e-54
9.48259e-54
3.93194e-53
3.93194e-53
3.93194e-53
3.93194e-53
1.57481e-52
1.57481e-52
1.57481e-52
1.57481e-52
6.09148e-52
6.09148e-52
6.09148e-52
6.09148e-52
2.27522e-51
2.27522e-51
2.27522e-51
2.27522e-51
8.20472e-51
8.20472e-51
8.20472e-51
8.20472e-51
2.85615e-50
2.85615e-50
2.85615e-50
2.85615e-50
9.59649e-50
9.59649e-50
9.59649e-50
9.59649e-50
3.11169e-49
3.11169e-49
3.11169e-49
3.11169e-49
9.73584e-49
9.73584e-49
9.73584e-49
9.73584e-49
2.9389e-48
2.9389e-48
2.9389e-48
2.9389e-48
8.55815e-48
8.55815e-48
8.55815e-48
8.55815e-48
2.4039e-47
2.4039e-47
2.4039e-47
2.4039e-47
6.51323e-47
6.51323e-47
6.51323e-47
6.51323e-47
1.70277e-46
1.70277e-46
1.70277e-46
1.70277e-46
4.30054e-46
4.30054e-46
4.30054e-46
4.30054e-46
1.05305e-45
1.05305e-45
1.05305e-45
1.05305e-45
2.52284e-45
2.52284e-45
2.52284e-45
2.52284e-45
6.061e-45
6.061e-45
6.061e-45
6.061e-45
1.67862e-44
1.67862e-44
1.67862e-44
1.67862e-44
1.23953e-43
1.23953e-43
1.23953e-43
1.23953e-43
3.34217e-42
3.34217e-42
3.34217e-42
3.34217e-42
1.09692e-40
1.09692e-40
1.09692e-40
1.09692e-40
3.29543e-39
3.29543e-39
3.29543e-39
3.29543e-39
8.7784e-38
8.7784e-38
8.7784e-38
8.7784e-38
2.0486e-36
2.0486e-36
2.0486e-36
2.0486e-36
4.13508e-35
4.13508e-35
4.13508e-35
4.13508e-35
7.10594e-34
7.10594e-34
7.10594e-34
7.10594e-34
1.01891e-32
1.01891e-32
1.01891e-32
1.01891e-32
1.18775e-31
1.18775e-31
1.18775e-31
1.18775e-31
1.08839e-30
1.08839e-30
1.08839e-30
1.08839e-30
7.52491e-30
7.52491e-30
7.52491e-30
7.52491e-30
3.78911e-29
3.78911e-29
3.78911e-29
3.78911e-29
1.43464e-28
1.43464e-28
1.43464e-28
1.43464e-28
4.84683e-28
4.84683e-28
4.84683e-28
4.84683e-28
1.40416e-27
1.40416e-27
1.40416e-27
1.40416e-27
3.1314e-27
3.1314e-27
3.1314e-27
3.1314e-27
4.04936e-27
4.04936e-27
4.04936e-27
4.04936e-27
4.45029e-28
4.45029e-28
4.45029e-28
4.45029e-28
5.57718e-28
5.57718e-28
5.57718e-28
5.57718e-28
5.88657e-29
5.88657e-29
5.88657e-29
5.88657e-29
7.12789e-29
7.12789e-29
7.12789e-29
7.12789e-29
3.36005e-30
3.36005e-30
3.36005e-30
3.36005e-30
2.84871e-33
2.84871e-33
2.84871e-33
2.84871e-33
2.24602e-36
2.24602e-36
2.24602e-36
2.24602e-36
4.61293e-39
4.61293e-39
4.61293e-39
4.61293e-39
4.37109e-39
4.37109e-39
4.37109e-39
4.37109e-39
3.9776e-39
3.9776e-39
3.9776e-39
3.9776e-39
3.47586e-39
3.47586e-39
3.47586e-39
3.47586e-39
2.91679e-39
2.91679e-39
2.91679e-39
2.91679e-39
2.3504e-39
2.3504e-39
2.3504e-39
2.3504e-39
1.81872e-39
1.81872e-39
1.81872e-39
1.81872e-39
1.35136e-39
1.35136e-39
1.35136e-39
1.35136e-39
9.64155e-40
9.64155e-40
9.64155e-40
9.64155e-40
6.60529e-40
6.60529e-40
6.60529e-40
6.60529e-40
4.34509e-40
4.34509e-40
4.34509e-40
4.34509e-40
2.7445e-40
2.7445e-40
2.7445e-40
2.7445e-40
1.66448e-40
1.66448e-40
1.66448e-40
1.66448e-40
9.69266e-41
9.69266e-41
9.69266e-41
9.69266e-41
5.41939e-41
5.41939e-41
5.41939e-41
5.41939e-41
2.90936e-41
2.90936e-41
2.90936e-41
2.90936e-41
1.49962e-41
1.49962e-41
1.49962e-41
1.49962e-41
7.42163e-42
7.42163e-42
7.42163e-42
7.42163e-42
3.52652e-42
3.52652e-42
3.52652e-42
3.52652e-42
1.60887e-42
1.60887e-42
1.60887e-42
1.60887e-42
7.04719e-43
7.04719e-43
7.04719e-43
7.04719e-43
2.96301e-43
2.96301e-43
2.96301e-43
2.96301e-43
1.19268e-43
1.19268e-43
1.19268e-43
1.19268e-43
4.48078e-44
4.48078e-44
4.48078e-44
4.48078e-44
1.30303e-44
1.30303e-44
1.30303e-44
1.30303e-44
4.68891e-78
4.68891e-78
4.68891e-78
4.68891e-78
9.23601e-77
9.23601e-77
9.23601e-77
9.23601e-77
9.71753e-76
9.71753e-76
9.71753e-76
9.71753e-76
9.92991e-75
9.92991e-75
9.92991e-75
9.92991e-75
9.85285e-74
9.85285e-74
9.85285e-74
9.85285e-74
9.49105e-73
9.49105e-73
9.49105e-73
9.49105e-73
8.87383e-72
8.87383e-72
8.87383e-72
8.87383e-72
8.05123e-71
8.05123e-71
8.05123e-71
8.05123e-71
7.08723e-70
7.08723e-70
7.08723e-70
7.08723e-70
6.0515e-69
6.0515e-69
6.0515e-69
6.0515e-69
5.0111e-68
5.0111e-68
5.0111e-68
5.0111e-68
4.02342e-67
4.02342e-67
4.02342e-67
4.02342e-67
3.13157e-66
3.13157e-66
3.13157e-66
3.13157e-66
2.36235e-65
2.36235e-65
2.36235e-65
2.36235e-65
1.72684e-64
1.72684e-64
1.72684e-64
1.72684e-64
1.22293e-63
1.22293e-63
1.22293e-63
1.22293e-63
8.38888e-63
8.38888e-63
8.38888e-63
8.38888e-63
5.57281e-62
5.57281e-62
5.57281e-62
5.57281e-62
3.58448e-61
3.58448e-61
3.58448e-61
3.58448e-61
2.23191e-60
2.23191e-60
2.23191e-60
2.23191e-60
1.34507e-59
1.34507e-59
1.34507e-59
1.34507e-59
7.8441e-59
7.8441e-59
7.8441e-59
7.8441e-59
4.42583e-58
4.42583e-58
4.42583e-58
4.42583e-58
2.41556e-57
2.41556e-57
2.41556e-57
2.41556e-57
1.27507e-56
1.27507e-56
1.27507e-56
1.27507e-56
6.50828e-56
6.50828e-56
6.50828e-56
6.50828e-56
3.21172e-55
3.21172e-55
3.21172e-55
3.21172e-55
1.53205e-54
1.53205e-54
1.53205e-54
1.53205e-54
7.0631e-54
7.0631e-54
7.0631e-54
7.0631e-54
3.14656e-53
3.14656e-53
3.14656e-53
3.14656e-53
1.35432e-52
1.35432e-52
1.35432e-52
1.35432e-52
5.63094e-52
5.63094e-52
5.63094e-52
5.63094e-52
2.26124e-51
2.26124e-51
2.26124e-51
2.26124e-51
8.76904e-51
8.76904e-51
8.76904e-51
8.76904e-51
3.28344e-50
3.28344e-50
3.28344e-50
3.28344e-50
1.1869e-49
1.1869e-49
1.1869e-49
1.1869e-49
4.14137e-49
4.14137e-49
4.14137e-49
4.14137e-49
1.39462e-48
1.39462e-48
1.39462e-48
1.39462e-48
4.53199e-48
4.53199e-48
4.53199e-48
4.53199e-48
1.42097e-47
1.42097e-47
1.42097e-47
1.42097e-47
4.29821e-47
4.29821e-47
4.29821e-47
4.29821e-47
1.25413e-46
1.25413e-46
1.25413e-46
1.25413e-46
3.52946e-46
3.52946e-46
3.52946e-46
3.52946e-46
9.58033e-46
9.58033e-46
9.58033e-46
9.58033e-46
2.50884e-45
2.50884e-45
2.50884e-45
2.50884e-45
6.34541e-45
6.34541e-45
6.34541e-45
6.34541e-45
1.55531e-44
1.55531e-44
1.55531e-44
1.55531e-44
3.73586e-44
3.73586e-44
3.73586e-44
3.73586e-44
9.42691e-44
9.42691e-44
9.42691e-44
9.42691e-44
4.51678e-43
4.51678e-43
4.51678e-43
4.51678e-43
9.87773e-42
9.87773e-42
9.87773e-42
9.87773e-42
3.4273e-40
3.4273e-40
3.4273e-40
3.4273e-40
1.12241e-38
1.12241e-38
1.12241e-38
1.12241e-38
3.29177e-37
3.29177e-37
3.29177e-37
3.29177e-37
8.54379e-36
8.54379e-36
8.54379e-36
8.54379e-36
1.94182e-34
1.94182e-34
1.94182e-34
1.94182e-34
3.81565e-33
3.81565e-33
3.81565e-33
3.81565e-33
6.37985e-32
6.37985e-32
6.37985e-32
6.37985e-32
8.89365e-31
8.89365e-31
8.89365e-31
8.89365e-31
1.00654e-29
1.00654e-29
1.00654e-29
1.00654e-29
8.93092e-29
8.93092e-29
8.93092e-29
8.93092e-29
5.94621e-28
5.94621e-28
5.94621e-28
5.94621e-28
2.85116e-27
2.85116e-27
2.85116e-27
2.85116e-27
1.01171e-26
1.01171e-26
1.01171e-26
1.01171e-26
3.22272e-26
3.22272e-26
3.22272e-26
3.22272e-26
8.87129e-26
8.87129e-26
8.87129e-26
8.87129e-26
1.89673e-25
1.89673e-25
1.89673e-25
1.89673e-25
2.37232e-25
2.37232e-25
2.37232e-25
2.37232e-25
2.55726e-26
2.55726e-26
2.55726e-26
2.55726e-26
3.10968e-26
3.10968e-26
3.10968e-26
3.10968e-26
3.23807e-27
3.23807e-27
3.23807e-27
3.23807e-27
3.815e-27
3.815e-27
3.815e-27
3.815e-27
1.81425e-28
1.81425e-28
1.81425e-28
1.81425e-28
1.63498e-31
1.63498e-31
1.63498e-31
1.63498e-31
1.36301e-34
1.36301e-34
1.36301e-34
1.36301e-34
5.51537e-38
5.51537e-38
5.51537e-38
5.51537e-38
5.19132e-38
5.19132e-38
5.19132e-38
5.19132e-38
4.69278e-38
4.69278e-38
4.69278e-38
4.69278e-38
4.074e-38
4.074e-38
4.074e-38
4.074e-38
3.39659e-38
3.39659e-38
3.39659e-38
3.39659e-38
2.71949e-38
2.71949e-38
2.71949e-38
2.71949e-38
2.09096e-38
2.09096e-38
2.09096e-38
2.09096e-38
1.54388e-38
1.54388e-38
1.54388e-38
1.54388e-38
1.09466e-38
1.09466e-38
1.09466e-38
1.09466e-38
7.45317e-39
7.45317e-39
7.45317e-39
7.45317e-39
4.87293e-39
4.87293e-39
4.87293e-39
4.87293e-39
3.0593e-39
3.0593e-39
3.0593e-39
3.0593e-39
1.84429e-39
1.84429e-39
1.84429e-39
1.84429e-39
1.06761e-39
1.06761e-39
1.06761e-39
1.06761e-39
5.93418e-40
5.93418e-40
5.93418e-40
5.93418e-40
3.16719e-40
3.16719e-40
3.16719e-40
3.16719e-40
1.62311e-40
1.62311e-40
1.62311e-40
1.62311e-40
7.98686e-41
7.98686e-41
7.98686e-41
7.98686e-41
3.77363e-41
3.77363e-41
3.77363e-41
3.77363e-41
1.71195e-41
1.71195e-41
1.71195e-41
1.71195e-41
7.45703e-42
7.45703e-42
7.45703e-42
7.45703e-42
3.11812e-42
3.11812e-42
3.11812e-42
3.11812e-42
1.24848e-42
1.24848e-42
1.24848e-42
1.24848e-42
4.67053e-43
4.67053e-43
4.67053e-43
4.67053e-43
1.3573e-43
1.3573e-43
1.3573e-43
1.3573e-43
5.6733e-77
5.6733e-77
5.6733e-77
5.6733e-77
1.12105e-75
1.12105e-75
1.12105e-75
1.12105e-75
1.18625e-74
1.18625e-74
1.18625e-74
1.18625e-74
1.21898e-73
1.21898e-73
1.21898e-73
1.21898e-73
1.21618e-72
1.21618e-72
1.21618e-72
1.21618e-72
1.17784e-71
1.17784e-71
1.17784e-71
1.17784e-71
1.10706e-70
1.10706e-70
1.10706e-70
1.10706e-70
1.00963e-69
1.00963e-69
1.00963e-69
1.00963e-69
8.93239e-69
8.93239e-69
8.93239e-69
8.93239e-69
7.66475e-68
7.66475e-68
7.66475e-68
7.66475e-68
6.37769e-67
6.37769e-67
6.37769e-67
6.37769e-67
5.14487e-66
5.14487e-66
5.14487e-66
5.14487e-66
4.02292e-65
4.02292e-65
4.02292e-65
4.02292e-65
3.04844e-64
3.04844e-64
3.04844e-64
3.04844e-64
2.23818e-63
2.23818e-63
2.23818e-63
2.23818e-63
1.59186e-62
1.59186e-62
1.59186e-62
1.59186e-62
1.09654e-61
1.09654e-61
1.09654e-61
1.09654e-61
7.31414e-61
7.31414e-61
7.31414e-61
7.31414e-61
4.72325e-60
4.72325e-60
4.72325e-60
4.72325e-60
2.95239e-59
2.95239e-59
2.95239e-59
2.95239e-59
1.78598e-58
1.78598e-58
1.78598e-58
1.78598e-58
1.04537e-57
1.04537e-57
1.04537e-57
1.04537e-57
5.91936e-57
5.91936e-57
5.91936e-57
5.91936e-57
3.24196e-56
3.24196e-56
3.24196e-56
3.24196e-56
1.71709e-55
1.71709e-55
1.71709e-55
1.71709e-55
8.7933e-55
8.7933e-55
8.7933e-55
8.7933e-55
4.35321e-54
4.35321e-54
4.35321e-54
4.35321e-54
2.08301e-53
2.08301e-53
2.08301e-53
2.08301e-53
9.63218e-53
9.63218e-53
9.63218e-53
9.63218e-53
4.30364e-52
4.30364e-52
4.30364e-52
4.30364e-52
1.85761e-51
1.85761e-51
1.85761e-51
1.85761e-51
7.74481e-51
7.74481e-51
7.74481e-51
7.74481e-51
3.11844e-50
3.11844e-50
3.11844e-50
3.11844e-50
1.21246e-49
1.21246e-49
1.21246e-49
1.21246e-49
4.5513e-49
4.5513e-49
4.5513e-49
4.5513e-49
1.64921e-48
1.64921e-48
1.64921e-48
1.64921e-48
5.76807e-48
5.76807e-48
5.76807e-48
5.76807e-48
1.94685e-47
1.94685e-47
1.94685e-47
1.94685e-47
6.34054e-47
6.34054e-47
6.34054e-47
6.34054e-47
1.99228e-46
1.99228e-46
1.99228e-46
1.99228e-46
6.03882e-46
6.03882e-46
6.03882e-46
6.03882e-46
1.76553e-45
1.76553e-45
1.76553e-45
1.76553e-45
4.97827e-45
4.97827e-45
4.97827e-45
4.97827e-45
1.35379e-44
1.35379e-44
1.35379e-44
1.35379e-44
3.5513e-44
3.5513e-44
3.5513e-44
3.5513e-44
8.99571e-44
8.99571e-44
8.99571e-44
8.99571e-44
2.20972e-43
2.20972e-43
2.20972e-43
2.20972e-43
5.42839e-43
5.42839e-43
5.42839e-43
5.42839e-43
1.87294e-42
1.87294e-42
1.87294e-42
1.87294e-42
2.79061e-41
2.79061e-41
2.79061e-41
2.79061e-41
9.62324e-40
9.62324e-40
9.62324e-40
9.62324e-40
3.40456e-38
3.40456e-38
3.40456e-38
3.40456e-38
1.08981e-36
1.08981e-36
1.08981e-36
1.08981e-36
3.11365e-35
3.11365e-35
3.11365e-35
3.11365e-35
7.86842e-34
7.86842e-34
7.86842e-34
7.86842e-34
1.74051e-32
1.74051e-32
1.74051e-32
1.74051e-32
3.32732e-31
3.32732e-31
3.32732e-31
3.32732e-31
5.40985e-30
5.40985e-30
5.40985e-30
5.40985e-30
7.32831e-29
7.32831e-29
7.32831e-29
7.32831e-29
8.04978e-28
8.04978e-28
8.04978e-28
8.04978e-28
6.91593e-27
6.91593e-27
6.91593e-27
6.91593e-27
4.43568e-26
4.43568e-26
4.43568e-26
4.43568e-26
2.02609e-25
2.02609e-25
2.02609e-25
2.02609e-25
6.73152e-25
6.73152e-25
6.73152e-25
6.73152e-25
2.01987e-24
2.01987e-24
2.01987e-24
2.01987e-24
5.27853e-24
5.27853e-24
5.27853e-24
5.27853e-24
1.08127e-23
1.08127e-23
1.08127e-23
1.08127e-23
1.30764e-23
1.30764e-23
1.30764e-23
1.30764e-23
1.38616e-24
1.38616e-24
1.38616e-24
1.38616e-24
1.63524e-24
1.63524e-24
1.63524e-24
1.63524e-24
1.68363e-25
1.68363e-25
1.68363e-25
1.68363e-25
1.92979e-25
1.92979e-25
1.92979e-25
1.92979e-25
9.27539e-27
9.27539e-27
9.27539e-27
9.27539e-27
8.91352e-30
8.91352e-30
8.91352e-30
8.91352e-30
7.88765e-33
7.88765e-33
7.88765e-33
7.88765e-33
6.38495e-37
6.38495e-37
6.38495e-37
6.38495e-37
5.97074e-37
5.97074e-37
5.97074e-37
5.97074e-37
5.3626e-37
5.3626e-37
5.3626e-37
5.3626e-37
4.62584e-37
4.62584e-37
4.62584e-37
4.62584e-37
3.83233e-37
3.83233e-37
3.83233e-37
3.83233e-37
3.04919e-37
3.04919e-37
3.04919e-37
3.04919e-37
2.32995e-37
2.32995e-37
2.32995e-37
2.32995e-37
1.70979e-37
1.70979e-37
1.70979e-37
1.70979e-37
1.20493e-37
1.20493e-37
1.20493e-37
1.20493e-37
8.15461e-38
8.15461e-38
8.15461e-38
8.15461e-38
5.29976e-38
5.29976e-38
5.29976e-38
5.29976e-38
3.30762e-38
3.30762e-38
3.30762e-38
3.30762e-38
1.98233e-38
1.98233e-38
1.98233e-38
1.98233e-38
1.14086e-38
1.14086e-38
1.14086e-38
1.14086e-38
6.30493e-39
6.30493e-39
6.30493e-39
6.30493e-39
3.34591e-39
3.34591e-39
3.34591e-39
3.34591e-39
1.70502e-39
1.70502e-39
1.70502e-39
1.70502e-39
8.34306e-40
8.34306e-40
8.34306e-40
8.34306e-40
3.92008e-40
3.92008e-40
3.92008e-40
3.92008e-40
1.76863e-40
1.76863e-40
1.76863e-40
1.76863e-40
7.66197e-41
7.66197e-41
7.66197e-41
7.66197e-41
3.18658e-41
3.18658e-41
3.18658e-41
3.18658e-41
1.26929e-41
1.26929e-41
1.26929e-41
1.26929e-41
4.72864e-42
4.72864e-42
4.72864e-42
4.72864e-42
1.37343e-42
1.37343e-42
1.37343e-42
1.37343e-42
6.587e-76
6.587e-76
6.587e-76
6.587e-76
1.30578e-74
1.30578e-74
1.30578e-74
1.30578e-74
1.38973e-73
1.38973e-73
1.38973e-73
1.38973e-73
1.43619e-72
1.43619e-72
1.43619e-72
1.43619e-72
1.44086e-71
1.44086e-71
1.44086e-71
1.44086e-71
1.40304e-70
1.40304e-70
1.40304e-70
1.40304e-70
1.32576e-69
1.32576e-69
1.32576e-69
1.32576e-69
1.21539e-68
1.21539e-68
1.21539e-68
1.21539e-68
1.08077e-67
1.08077e-67
1.08077e-67
1.08077e-67
9.32026e-67
9.32026e-67
9.32026e-67
9.32026e-67
7.79306e-66
7.79306e-66
7.79306e-66
7.79306e-66
6.31662e-65
6.31662e-65
6.31662e-65
6.31662e-65
4.96216e-64
4.96216e-64
4.96216e-64
4.96216e-64
3.77726e-63
3.77726e-63
3.77726e-63
3.77726e-63
2.78559e-62
2.78559e-62
2.78559e-62
2.78559e-62
1.98978e-61
1.98978e-61
1.98978e-61
1.98978e-61
1.37643e-60
1.37643e-60
1.37643e-60
1.37643e-60
9.21886e-60
9.21886e-60
9.21886e-60
9.21886e-60
5.97714e-59
5.97714e-59
5.97714e-59