# vtk DataFile Version 2.0
dg(0) output generated by Nextsim
ASCII
DATASET UNSTRUCTURED_GRID
FIELD FieldData 1
TIME 1 1 double
0
POINTS 40000 DOUBLE
0	0	0
0.01	0	0
0.01	0.01	0
0	0.01	0
0.01	0	0
0.02	0	0
0.02	0.01	0
0.01	0.01	0
0.02	0	0
0.03	0	0
0.03	0.01	0
0.02	0.01	0
0.03	0	0
0.04	0	0
0.04	0.01	0
0.03	0.01	0
0.04	0	0
0.05	0	0
0.05	0.01	0
0.04	0.01	0
0.05	0	0
0.06	0	0
0.06	0.01	0
0.05	0.01	0
0.06	0	0
0.07	0	0
0.07	0.01	0
0.06	0.01	0
0.07	0	0
0.08	0	0
0.08	0.01	0
0.07	0.01	0
0.08	0	0
0.09	0	0
0.09	0.01	0
0.08	0.01	0
0.09	0	0
0.1	0	0
0.1	0.01	0
0.09	0.01	0
0.1	0	0
0.11	0	0
0.11	0.01	0
0.1	0.01	0
0.11	0	0
0.12	0	0
0.12	0.01	0
0.11	0.01	0
0.12	0	0
0.13	0	0
0.13	0.01	0
0.12	0.01	0
0.13	0	0
0.14	0	0
0.14	0.01	0
0.13	0.01	0
0.14	0	0
0.15	0	0
0.15	0.01	0
0.14	0.01	0
0.15	0	0
0.16	0	0
0.16	0.01	0
0.15	0.01	0
0.16	0	0
0.17	0	0
0.17	0.01	0
0.16	0.01	0
0.17	0	0
0.18	0	0
0.18	0.01	0
0.17	0.01	0
0.18	0	0
0.19	0	0
0.19	0.01	0
0.18	0.01	0
0.19	0	0
0.2	0	0
0.2	0.01	0
0.19	0.01	0
0.2	0	0
0.21	0	0
0.21	0.01	0
0.2	0.01	0
0.21	0	0
0.22	0	0
0.22	0.01	0
0.21	0.01	0
0.22	0	0
0.23	0	0
0.23	0.01	0
0.22	0.01	0
0.23	0	0
0.24	0	0
0.24	0.01	0
0.23	0.01	0
0.24	0	0
0.25	0	0
0.25	0.01	0
0.24	0.01	0
0.25	0	0
0.26	0	0
0.26	0.01	0
0.25	0.01	0
0.26	0	0
0.27	0	0
0.27	0.01	0
0.26	0.01	0
0.27	0	0
0.28	0	0
0.28	0.01	0
0.27	0.01	0
0.28	0	0
0.29	0	0
0.29	0.01	0
0.28	0.01	0
0.29	0	0
0.3	0	0
0.3	0.01	0
0.29	0.01	0
0.3	0	0
0.31	0	0
0.31	0.01	0
0.3	0.01	0
0.31	0	0
0.32	0	0
0.32	0.01	0
0.31	0.01	0
0.32	0	0
0.33	0	0
0.33	0.01	0
0.32	0.01	0
0.33	0	0
0.34	0	0
0.34	0.01	0
0.33	0.01	0
0.34	0	0
0.35	0	0
0.35	0.01	0
0.34	0.01	0
0.35	0	0
0.36	0	0
0.36	0.01	0
0.35	0.01	0
0.36	0	0
0.37	0	0
0.37	0.01	0
0.36	0.01	0
0.37	0	0
0.38	0	0
0.38	0.01	0
0.37	0.01	0
0.38	0	0
0.39	0	0
0.39	0.01	0
0.38	0.01	0
0.39	0	0
0.4	0	0
0.4	0.01	0
0.39	0.01	0
0.4	0	0
0.41	0	0
0.41	0.01	0
0.4	0.01	0
0.41	0	0
0.42	0	0
0.42	0.01	0
0.41	0.01	0
0.42	0	0
0.43	0	0
0.43	0.01	0
0.42	0.01	0
0.43	0	0
0.44	0	0
0.44	0.01	0
0.43	0.01	0
0.44	0	0
0.45	0	0
0.45	0.01	0
0.44	0.01	0
0.45	0	0
0.46	0	0
0.46	0.01	0
0.45	0.01	0
0.46	0	0
0.47	0	0
0.47	0.01	0
0.46	0.01	0
0.47	0	0
0.48	0	0
0.48	0.01	0
0.47	0.01	0
0.48	0	0
0.49	0	0
0.49	0.01	0
0.48	0.01	0
0.49	0	0
0.5	0	0
0.5	0.01	0
0.49	0.01	0
0.5	0	0
0.51	0	0
0.51	0.01	0
0.5	0.01	0
0.51	0	0
0.52	0	0
0.52	0.01	0
0.51	0.01	0
0.52	0	0
0.53	0	0
0.53	0.01	0
0.52	0.01	0
0.53	0	0
0.54	0	0
0.54	0.01	0
0.53	0.01	0
0.54	0	0
0.55	0	0
0.55	0.01	0
0.54	0.01	0
0.55	0	0
0.56	0	0
0.56	0.01	0
0.55	0.01	0
0.56	0	0
0.57	0	0
0.57	0.01	0
0.56	0.01	0
0.57	0	0
0.58	0	0
0.58	0.01	0
0.57	0.01	0
0.58	0	0
0.59	0	0
0.59	0.01	0
0.58	0.01	0
0.59	0	0
0.6	0	0
0.6	0.01	0
0.59	0.01	0
0.6	0	0
0.61	0	0
0.61	0.01	0
0.6	0.01	0
0.61	0	0
0.62	0	0
0.62	0.01	0
0.61	0.01	0
0.62	0	0
0.63	0	0
0.63	0.01	0
0.62	0.01	0
0.63	0	0
0.64	0	0
0.64	0.01	0
0.63	0.01	0
0.64	0	0
0.65	0	0
0.65	0.01	0
0.64	0.01	0
0.65	0	0
0.66	0	0
0.66	0.01	0
0.65	0.01	0
0.66	0	0
0.67	0	0
0.67	0.01	0
0.66	0.01	0
0.67	0	0
0.68	0	0
0.68	0.01	0
0.67	0.01	0
0.68	0	0
0.69	0	0
0.69	0.01	0
0.68	0.01	0
0.69	0	0
0.7	0	0
0.7	0.01	0
0.69	0.01	0
0.7	0	0
0.71	0	0
0.71	0.01	0
0.7	0.01	0
0.71	0	0
0.72	0	0
0.72	0.01	0
0.71	0.01	0
0.72	0	0
0.73	0	0
0.73	0.01	0
0.72	0.01	0
0.73	0	0
0.74	0	0
0.74	0.01	0
0.73	0.01	0
0.74	0	0
0.75	0	0
0.75	0.01	0
0.74	0.01	0
0.75	0	0
0.76	0	0
0.76	0.01	0
0.75	0.01	0
0.76	0	0
0.77	0	0
0.77	0.01	0
0.76	0.01	0
0.77	0	0
0.78	0	0
0.78	0.01	0
0.77	0.01	0
0.78	0	0
0.79	0	0
0.79	0.01	0
0.78	0.01	0
0.79	0	0
0.8	0	0
0.8	0.01	0
0.79	0.01	0
0.8	0	0
0.81	0	0
0.81	0.01	0
0.8	0.01	0
0.81	0	0
0.82	0	0
0.82	0.01	0
0.81	0.01	0
0.82	0	0
0.83	0	0
0.83	0.01	0
0.82	0.01	0
0.83	0	0
0.84	0	0
0.84	0.01	0
0.83	0.01	0
0.84	0	0
0.85	0	0
0.85	0.01	0
0.84	0.01	0
0.85	0	0
0.86	0	0
0.86	0.01	0
0.85	0.01	0
0.86	0	0
0.87	0	0
0.87	0.01	0
0.86	0.01	0
0.87	0	0
0.88	0	0
0.88	0.01	0
0.87	0.01	0
0.88	0	0
0.89	0	0
0.89	0.01	0
0.88	0.01	0
0.89	0	0
0.9	0	0
0.9	0.01	0
0.89	0.01	0
0.9	0	0
0.91	0	0
0.91	0.01	0
0.9	0.01	0
0.91	0	0
0.92	0	0
0.92	0.01	0
0.91	0.01	0
0.92	0	0
0.93	0	0
0.93	0.01	0
0.92	0.01	0
0.93	0	0
0.94	0	0
0.94	0.01	0
0.93	0.01	0
0.94	0	0
0.95	0	0
0.95	0.01	0
0.94	0.01	0
0.95	0	0
0.96	0	0
0.96	0.01	0
0.95	0.01	0
0.96	0	0
0.97	0	0
0.97	0.01	0
0.96	0.01	0
0.97	0	0
0.98	0	0
0.98	0.01	0
0.97	0.01	0
0.98	0	0
0.99	0	0
0.99	0.01	0
0.98	0.01	0
0.99	0	0
1	0	0
1	0.01	0
0.99	0.01	0
0	0.01	0
0.01	0.01	0
0.01	0.02	0
0	0.02	0
0.01	0.01	0
0.02	0.01	0
0.02	0.02	0
0.01	0.02	0
0.02	0.01	0
0.03	0.01	0
0.03	0.02	0
0.02	0.02	0
0.03	0.01	0
0.04	0.01	0
0.04	0.02	0
0.03	0.02	0
0.04	0.01	0
0.05	0.01	0
0.05	0.02	0
0.04	0.02	0
0.05	0.01	0
0.06	0.01	0
0.06	0.02	0
0.05	0.02	0
0.06	0.01	0
0.07	0.01	0
0.07	0.02	0
0.06	0.02	0
0.07	0.01	0
0.08	0.01	0
0.08	0.02	0
0.07	0.02	0
0.08	0.01	0
0.09	0.01	0
0.09	0.02	0
0.08	0.02	0
0.09	0.01	0
0.1	0.01	0
0.1	0.02	0
0.09	0.02	0
0.1	0.01	0
0.11	0.01	0
0.11	0.02	0
0.1	0.02	0
0.11	0.01	0
0.12	0.01	0
0.12	0.02	0
0.11	0.02	0
0.12	0.01	0
0.13	0.01	0
0.13	0.02	0
0.12	0.02	0
0.13	0.01	0
0.14	0.01	0
0.14	0.02	0
0.13	0.02	0
0.14	0.01	0
0.15	0.01	0
0.15	0.02	0
0.14	0.02	0
0.15	0.01	0
0.16	0.01	0
0.16	0.02	0
0.15	0.02	0
0.16	0.01	0
0.17	0.01	0
0.17	0.02	0
0.16	0.02	0
0.17	0.01	0
0.18	0.01	0
0.18	0.02	0
0.17	0.02	0
0.18	0.01	0
0.19	0.01	0
0.19	0.02	0
0.18	0.02	0
0.19	0.01	0
0.2	0.01	0
0.2	0.02	0
0.19	0.02	0
0.2	0.01	0
0.21	0.01	0
0.21	0.02	0
0.2	0.02	0
0.21	0.01	0
0.22	0.01	0
0.22	0.02	0
0.21	0.02	0
0.22	0.01	0
0.23	0.01	0
0.23	0.02	0
0.22	0.02	0
0.23	0.01	0
0.24	0.01	0
0.24	0.02	0
0.23	0.02	0
0.24	0.01	0
0.25	0.01	0
0.25	0.02	0
0.24	0.02	0
0.25	0.01	0
0.26	0.01	0
0.26	0.02	0
0.25	0.02	0
0.26	0.01	0
0.27	0.01	0
0.27	0.02	0
0.26	0.02	0
0.27	0.01	0
0.28	0.01	0
0.28	0.02	0
0.27	0.02	0
0.28	0.01	0
0.29	0.01	0
0.29	0.02	0
0.28	0.02	0
0.29	0.01	0
0.3	0.01	0
0.3	0.02	0
0.29	0.02	0
0.3	0.01	0
0.31	0.01	0
0.31	0.02	0
0.3	0.02	0
0.31	0.01	0
0.32	0.01	0
0.32	0.02	0
0.31	0.02	0
0.32	0.01	0
0.33	0.01	0
0.33	0.02	0
0.32	0.02	0
0.33	0.01	0
0.34	0.01	0
0.34	0.02	0
0.33	0.02	0
0.34	0.01	0
0.35	0.01	0
0.35	0.02	0
0.34	0.02	0
0.35	0.01	0
0.36	0.01	0
0.36	0.02	0
0.35	0.02	0
0.36	0.01	0
0.37	0.01	0
0.37	0.02	0
0.36	0.02	0
0.37	0.01	0
0.38	0.01	0
0.38	0.02	0
0.37	0.02	0
0.38	0.01	0
0.39	0.01	0
0.39	0.02	0
0.38	0.02	0
0.39	0.01	0
0.4	0.01	0
0.4	0.02	0
0.39	0.02	0
0.4	0.01	0
0.41	0.01	0
0.41	0.02	0
0.4	0.02	0
0.41	0.01	0
0.42	0.01	0
0.42	0.02	0
0.41	0.02	0
0.42	0.01	0
0.43	0.01	0
0.43	0.02	0
0.42	0.02	0
0.43	0.01	0
0.44	0.01	0
0.44	0.02	0
0.43	0.02	0
0.44	0.01	0
0.45	0.01	0
0.45	0.02	0
0.44	0.02	0
0.45	0.01	0
0.46	0.01	0
0.46	0.02	0
0.45	0.02	0
0.46	0.01	0
0.47	0.01	0
0.47	0.02	0
0.46	0.02	0
0.47	0.01	0
0.48	0.01	0
0.48	0.02	0
0.47	0.02	0
0.48	0.01	0
0.49	0.01	0
0.49	0.02	0
0.48	0.02	0
0.49	0.01	0
0.5	0.01	0
0.5	0.02	0
0.49	0.02	0
0.5	0.01	0
0.51	0.01	0
0.51	0.02	0
0.5	0.02	0
0.51	0.01	0
0.52	0.01	0
0.52	0.02	0
0.51	0.02	0
0.52	0.01	0
0.53	0.01	0
0.53	0.02	0
0.52	0.02	0
0.53	0.01	0
0.54	0.01	0
0.54	0.02	0
0.53	0.02	0
0.54	0.01	0
0.55	0.01	0
0.55	0.02	0
0.54	0.02	0
0.55	0.01	0
0.56	0.01	0
0.56	0.02	0
0.55	0.02	0
0.56	0.01	0
0.57	0.01	0
0.57	0.02	0
0.56	0.02	0
0.57	0.01	0
0.58	0.01	0
0.58	0.02	0
0.57	0.02	0
0.58	0.01	0
0.59	0.01	0
0.59	0.02	0
0.58	0.02	0
0.59	0.01	0
0.6	0.01	0
0.6	0.02	0
0.59	0.02	0
0.6	0.01	0
0.61	0.01	0
0.61	0.02	0
0.6	0.02	0
0.61	0.01	0
0.62	0.01	0
0.62	0.02	0
0.61	0.02	0
0.62	0.01	0
0.63	0.01	0
0.63	0.02	0
0.62	0.02	0
0.63	0.01	0
0.64	0.01	0
0.64	0.02	0
0.63	0.02	0
0.64	0.01	0
0.65	0.01	0
0.65	0.02	0
0.64	0.02	0
0.65	0.01	0
0.66	0.01	0
0.66	0.02	0
0.65	0.02	0
0.66	0.01	0
0.67	0.01	0
0.67	0.02	0
0.66	0.02	0
0.67	0.01	0
0.68	0.01	0
0.68	0.02	0
0.67	0.02	0
0.68	0.01	0
0.69	0.01	0
0.69	0.02	0
0.68	0.02	0
0.69	0.01	0
0.7	0.01	0
0.7	0.02	0
0.69	0.02	0
0.7	0.01	0
0.71	0.01	0
0.71	0.02	0
0.7	0.02	0
0.71	0.01	0
0.72	0.01	0
0.72	0.02	0
0.71	0.02	0
0.72	0.01	0
0.73	0.01	0
0.73	0.02	0
0.72	0.02	0
0.73	0.01	0
0.74	0.01	0
0.74	0.02	0
0.73	0.02	0
0.74	0.01	0
0.75	0.01	0
0.75	0.02	0
0.74	0.02	0
0.75	0.01	0
0.76	0.01	0
0.76	0.02	0
0.75	0.02	0
0.76	0.01	0
0.77	0.01	0
0.77	0.02	0
0.76	0.02	0
0.77	0.01	0
0.78	0.01	0
0.78	0.02	0
0.77	0.02	0
0.78	0.01	0
0.79	0.01	0
0.79	0.02	0
0.78	0.02	0
0.79	0.01	0
0.8	0.01	0
0.8	0.02	0
0.79	0.02	0
0.8	0.01	0
0.81	0.01	0
0.81	0.02	0
0.8	0.02	0
0.81	0.01	0
0.82	0.01	0
0.82	0.02	0
0.81	0.02	0
0.82	0.01	0
0.83	0.01	0
0.83	0.02	0
0.82	0.02	0
0.83	0.01	0
0.84	0.01	0
0.84	0.02	0
0.83	0.02	0
0.84	0.01	0
0.85	0.01	0
0.85	0.02	0
0.84	0.02	0
0.85	0.01	0
0.86	0.01	0
0.86	0.02	0
0.85	0.02	0
0.86	0.01	0
0.87	0.01	0
0.87	0.02	0
0.86	0.02	0
0.87	0.01	0
0.88	0.01	0
0.88	0.02	0
0.87	0.02	0
0.88	0.01	0
0.89	0.01	0
0.89	0.02	0
0.88	0.02	0
0.89	0.01	0
0.9	0.01	0
0.9	0.02	0
0.89	0.02	0
0.9	0.01	0
0.91	0.01	0
0.91	0.02	0
0.9	0.02	0
0.91	0.01	0
0.92	0.01	0
0.92	0.02	0
0.91	0.02	0
0.92	0.01	0
0.93	0.01	0
0.93	0.02	0
0.92	0.02	0
0.93	0.01	0
0.94	0.01	0
0.94	0.02	0
0.93	0.02	0
0.94	0.01	0
0.95	0.01	0
0.95	0.02	0
0.94	0.02	0
0.95	0.01	0
0.96	0.01	0
0.96	0.02	0
0.95	0.02	0
0.96	0.01	0
0.97	0.01	0
0.97	0.02	0
0.96	0.02	0
0.97	0.01	0
0.98	0.01	0
0.98	0.02	0
0.97	0.02	0
0.98	0.01	0
0.99	0.01	0
0.99	0.02	0
0.98	0.02	0
0.99	0.01	0
1	0.01	0
1	0.02	0
0.99	0.02	0
0	0.02	0
0.01	0.02	0
0.01	0.03	0
0	0.03	0
0.01	0.02	0
0.02	0.02	0
0.02	0.03	0
0.01	0.03	0
0.02	0.02	0
0.03	0.02	0
0.03	0.03	0
0.02	0.03	0
0.03	0.02	0
0.04	0.02	0
0.04	0.03	0
0.03	0.03	0
0.04	0.02	0
0.05	0.02	0
0.05	0.03	0
0.04	0.03	0
0.05	0.02	0
0.06	0.02	0
0.06	0.03	0
0.05	0.03	0
0.06	0.02	0
0.07	0.02	0
0.07	0.03	0
0.06	0.03	0
0.07	0.02	0
0.08	0.02	0
0.08	0.03	0
0.07	0.03	0
0.08	0.02	0
0.09	0.02	0
0.09	0.03	0
0.08	0.03	0
0.09	0.02	0
0.1	0.02	0
0.1	0.03	0
0.09	0.03	0
0.1	0.02	0
0.11	0.02	0
0.11	0.03	0
0.1	0.03	0
0.11	0.02	0
0.12	0.02	0
0.12	0.03	0
0.11	0.03	0
0.12	0.02	0
0.13	0.02	0
0.13	0.03	0
0.12	0.03	0
0.13	0.02	0
0.14	0.02	0
0.14	0.03	0
0.13	0.03	0
0.14	0.02	0
0.15	0.02	0
0.15	0.03	0
0.14	0.03	0
0.15	0.02	0
0.16	0.02	0
0.16	0.03	0
0.15	0.03	0
0.16	0.02	0
0.17	0.02	0
0.17	0.03	0
0.16	0.03	0
0.17	0.02	0
0.18	0.02	0
0.18	0.03	0
0.17	0.03	0
0.18	0.02	0
0.19	0.02	0
0.19	0.03	0
0.18	0.03	0
0.19	0.02	0
0.2	0.02	0
0.2	0.03	0
[...]
POINT_DATA 40000
SCALARS dg0 DOUBLE 
LOOKUP_TABLE default
9.68923e-84
9.68923e-84
9.68923e-84
9.68923e-84
2.22199e-82
2.22199e-82
2.22199e-82
2.22199e-82
3.05268e-81
3.05268e-81
3.05268e-81
3.05268e-81
4.04372e-80
4.04372e-80
4.04372e-80
4.04372e-80
5.16412e-79
5.16412e-79
5.16412e-79
5.16412e-79
6.35751e-78
6.35751e-78
6.35751e-78
6.35751e-78
7.54415e-77
7.54415e-77
7.54415e-77
7.54415e-77
8.62831e-76
8.62831e-76
8.62831e-76
8.62831e-76
9.51026e-75
9.51026e-75
9.51026e-75
9.51026e-75
1.01011e-73
1.01011e-73
1.01011e-73
1.01011e-73
1.03376e-72
1.03376e-72
1.03376e-72
1.03376e-72
1.01931e-71
1.01931e-71
1.01931e-71
1.01931e-71
9.68252e-71
9.68252e-71
9.68252e-71
9.68252e-71
8.85993e-70
8.85993e-70
8.85993e-70
8.85993e-70
7.80901e-69
7.80901e-69
7.80901e-69
7.80901e-69
6.62904e-68
6.62904e-68
6.62904e-68
6.62904e-68
5.4195e-67
5.4195e-67
5.4195e-67
5.4195e-67
4.26666e-66
4.26666e-66
4.26666e-66
4.26666e-66
3.23449e-65
3.23449e-65
3.23449e-65
3.23449e-65
2.36091e-64
2.36091e-64
2.36091e-64
2.36091e-64
1.65911e-63
1.65911e-63
1.65911e-63
1.65911e-63
1.12245e-62
1.12245e-62
1.12245e-62
1.12245e-62
7.31014e-62
7.31014e-62
7.31014e-62
7.31014e-62
4.58267e-61
4.58267e-61
4.58267e-61
4.58267e-61
2.76516e-60
2.76516e-60
2.76516e-60
2.76516e-60
1.60584e-59
1.60584e-59
1.60584e-59
1.60584e-59
8.97512e-59
8.97512e-59
8.97512e-59
8.97512e-59
4.82733e-58
4.82733e-58
4.82733e-58
4.82733e-58
2.4985e-57
2.4985e-57
2.4985e-57
2.4985e-57
1.24432e-56
1.24432e-56
1.24432e-56
1.24432e-56
5.96266e-56
5.96266e-56
5.96266e-56
5.96266e-56
2.74906e-55
2.74906e-55
2.74906e-55
2.74906e-55
1.21939e-54
1.21939e-54
1.21939e-54
1.21939e-54
5.20343e-54
5.20343e-54
5.20343e-54
5.20343e-54
2.13604e-53
2.13604e-53
2.13604e-53
2.13604e-53
8.43494e-53
8.43494e-53
8.43494e-53
8.43494e-53
3.20396e-52
3.20396e-52
3.20396e-52
3.20396e-52
1.17059e-51
1.17059e-51
1.17059e-51
1.17059e-51
4.11357e-51
4.11357e-51
4.11357e-51
4.11357e-51
1.39031e-50
1.39031e-50
1.39031e-50
1.39031e-50
4.51927e-50
4.51927e-50
4.51927e-50
4.51927e-50
1.41277e-49
1.41277e-49
1.41277e-49
1.41277e-49
4.2472e-49
4.2472e-49
4.2472e-49
4.2472e-49
1.22787e-48
1.22787e-48
1.22787e-48
1.22787e-48
3.41351e-48
3.41351e-48
3.41351e-48
3.41351e-48
9.12509e-48
9.12509e-48
9.12509e-48
9.12509e-48
2.34557e-47
2.34557e-47
2.34557e-47
2.34557e-47
5.79739e-47
5.79739e-47
5.79739e-47
5.79739e-47
1.37807e-46
1.37807e-46
1.37807e-46
1.37807e-46
3.15528e-46
3.15528e-46
3.15528e-46
3.15528e-46
7.01347e-46
7.01347e-46
7.01347e-46
7.01347e-46
1.51322e-45
1.51322e-45
1.51322e-45
1.51322e-45
3.14505e-45
3.14505e-45
3.14505e-45
3.14505e-45
6.29604e-45
6.29604e-45
6.29604e-45
6.29604e-45
1.21387e-44
1.21387e-44
1.21387e-44
1.21387e-44
2.25369e-44
2.25369e-44
2.25369e-44
2.25369e-44
4.02886e-44
4.02886e-44
4.02886e-44
4.02886e-44
6.93409e-44
6.93409e-44
6.93409e-44
6.93409e-44
1.14885e-43
1.14885e-43
1.14885e-43
1.14885e-43
1.83215e-43
1.83215e-43
1.83215e-43
1.83215e-43
2.81208e-43
2.81208e-43
2.81208e-43
2.81208e-43
4.15356e-43
4.15356e-43
4.15356e-43
4.15356e-43
5.90328e-43
5.90328e-43
5.90328e-43
5.90328e-43
8.07241e-43
8.07241e-43
8.07241e-43
8.07241e-43
1.06196e-42
1.06196e-42
1.06196e-42
1.06196e-42
1.3439e-42
1.3439e-42
1.3439e-42
1.3439e-42
1.63585e-42
1.63585e-42
1.63585e-42
1.63585e-42
1.91514e-42
1.91514e-42
1.91514e-42
1.91514e-42
2.15627e-42
2.15627e-42
2.15627e-42
2.15627e-42
2.33465e-42
2.33465e-42
2.33465e-42
2.33465e-42
2.43065e-42
2.43065e-42
2.43065e-42
2.43065e-42
2.43321e-42
2.43321e-42
2.43321e-42
2.43321e-42
2.34189e-42
2.34189e-42
2.34189e-42
2.34189e-42
2.16698e-42
2.16698e-42
2.16698e-42
2.16698e-42
1.92764e-42
1.92764e-42
1.92764e-42
1.92764e-42
1.64837e-42
1.64837e-42
1.64837e-42
1.64837e-42
1.35495e-42
1.35495e-42
1.35495e-42
1.35495e-42
1.07057e-42
1.07057e-42
1.07057e-42
1.07057e-42
8.13026e-43
8.13026e-43
8.13026e-43
8.13026e-43
5.93448e-43
5.93448e-43
5.93448e-43
5.93448e-43
4.16324e-43
4.16324e-43
4.16324e-43
4.16324e-43
2.80697e-43
2.80697e-43
2.80697e-43
2.80697e-43
1.81882e-43
1.81882e-43
1.81882e-43
1.81882e-43
1.13259e-43
1.13259e-43
1.13259e-43
1.13259e-43
6.77763e-44
6.77763e-44
6.77763e-44
6.77763e-44
3.89757e-44
3.89757e-44
3.89757e-44
3.89757e-44
2.15383e-44
2.15383e-44
2.15383e-44
2.15383e-44
1.14373e-44
1.14373e-44
1.14373e-44
1.14373e-44
5.83603e-45
5.83603e-45
5.83603e-45
5.83603e-45
2.86147e-45
2.86147e-45
2.86147e-45
2.86147e-45
1.34813e-45
1.34813e-45
1.34813e-45
1.34813e-45
6.10291e-46
6.10291e-46
6.10291e-46
6.10291e-46
2.65461e-46
2.65461e-46
2.65461e-46
2.65461e-46
1.10947e-46
1.10947e-46
1.10947e-46
1.10947e-46
4.45528e-47
4.45528e-47
4.45528e-47
4.45528e-47
1.71901e-47
1.71901e-47
1.71901e-47
1.71901e-47
6.37261e-48
6.37261e-48
6.37261e-48
6.37261e-48
2.26975e-48
2.26975e-48
2.26975e-48
2.26975e-48
7.75529e-49
7.75529e-49
7.75529e-49
7.75529e-49
2.41219e-49
2.41219e-49
2.41219e-49
2.41219e-49
1.47359e-82
1.47359e-82
1.47359e-82
1.47359e-82
3.38099e-81
3.38099e-81
3.38099e-81
3.38099e-81
4.65238e-80
4.65238e-80
4.65238e-80
4.65238e-80
6.17224e-79
6.17224e-79
6.17224e-79
6.17224e-79
7.89414e-78
7.89414e-78
7.89414e-78
7.89414e-78
9.73237e-77
9.73237e-77
9.73237e-77
9.73237e-77
1.15649e-75
1.15649e-75
1.15649e-75
1.15649e-75
1.32446e-74
1.32446e-74
1.32446e-74
1.32446e-74
1.46172e-73
1.46172e-73
1.46172e-73
1.46172e-73
1.55447e-72
1.55447e-72
1.55447e-72
1.55447e-72
1.59276e-71
1.59276e-71
1.59276e-71
1.59276e-71
1.57229e-70
1.57229e-70
1.57229e-70
1.57229e-70
1.49518e-69
1.49518e-69
1.49518e-69
1.49518e-69
1.36961e-68
1.36961e-68
1.36961e-68
1.36961e-68
1.20838e-67
1.20838e-67
1.20838e-67
1.20838e-67
1.02679e-66
1.02679e-66
1.02679e-66
1.02679e-66
8.40225e-66
8.40225e-66
8.40225e-66
8.40225e-66
6.62084e-65
6.62084e-65
6.62084e-65
6.62084e-65
5.02345e-64
5.02345e-64
5.02345e-64
5.02345e-64
3.6697e-63
3.6697e-63
3.6697e-63
3.6697e-63
2.58088e-62
2.58088e-62
2.58088e-62
2.58088e-62
1.74737e-61
1.74737e-61
1.74737e-61
1.74737e-61
1.13881e-60
1.13881e-60
1.13881e-60
1.13881e-60
7.14394e-60
7.14394e-60
7.14394e-60
7.14394e-60
4.3134e-59
4.3134e-59
4.3134e-59
4.3134e-59
2.50651e-58
2.50651e-58
2.50651e-58
2.50651e-58
1.40172e-57
1.40172e-57
1.40172e-57
1.40172e-57
7.54341e-57
7.54341e-57
7.54341e-57
7.54341e-57
3.90631e-56
3.90631e-56
3.90631e-56
3.90631e-56
1.94641e-55
1.94641e-55
1.94641e-55
1.94641e-55
9.33144e-55
9.33144e-55
9.33144e-55
9.33144e-55
4.30413e-54
4.30413e-54
4.30413e-54
4.30413e-54
1.90996e-53
1.90996e-53
1.90996e-53
1.90996e-53
8.15351e-53
8.15351e-53
8.15351e-53
8.15351e-53
3.34831e-52
3.34831e-52
3.34831e-52
3.34831e-52
1.32266e-51
1.32266e-51
1.32266e-51
1.32266e-51
5.02568e-51
5.02568e-51
5.02568e-51
5.02568e-51
1.83673e-50
1.83673e-50
1.83673e-50
1.83673e-50
6.4563e-50
6.4563e-50
6.4563e-50
6.4563e-50
2.18269e-49
2.18269e-49
2.18269e-49
2.18269e-49
7.09666e-49
7.09666e-49
7.09666e-49
7.09666e-49
2.21899e-48
2.21899e-48
2.21899e-48
2.21899e-48
6.67233e-48
6.67233e-48
6.67233e-48
6.67233e-48
1.92934e-47
1.92934e-47
1.92934e-47
1.92934e-47
5.36456e-47
5.36456e-47
5.36456e-47
5.36456e-47
1.4343e-46
1.4343e-46
1.4343e-46
1.4343e-46
3.68735e-46
3.68735e-46
3.68735e-46
3.68735e-46
9.11538e-46
9.11538e-46
9.11538e-46
9.11538e-46
2.168e-45
2.168e-45
2.168e-45
2.168e-45
4.98158e-45
4.98158e-45
4.98158e-45
4.98158e-45
1.12884e-44
1.12884e-44
1.12884e-44
1.12884e-44
2.51212e-44
2.51212e-44
2.51212e-44
2.51212e-44
5.37399e-44
5.37399e-44
5.37399e-44
5.37399e-44
1.10507e-43
1.10507e-43
1.10507e-43
1.10507e-43
2.1843e-43
2.1843e-43
2.1843e-43
2.1843e-43
4.15002e-43
4.15002e-43
4.15002e-43
4.15002e-43
7.57873e-43
7.57873e-43
7.57873e-43
7.57873e-43
1.33027e-42
1.33027e-42
1.33027e-42
1.33027e-42
2.24425e-42
2.24425e-42
2.24425e-42
2.24425e-42
3.639e-42
3.639e-42
3.639e-42
3.639e-42
5.67107e-42
5.67107e-42
5.67107e-42
5.67107e-42
8.49396e-42
8.49396e-42
8.49396e-42
8.49396e-42
1.22267e-41
1.22267e-41
1.22267e-41
1.22267e-41
1.69145e-41
1.69145e-41
1.69145e-41
1.69145e-41
2.24878e-41
2.24878e-41
2.24878e-41
2.24878e-41
2.87321e-41
2.87321e-41
2.87321e-41
2.87321e-41
3.5279e-41
3.5279e-41
3.5279e-41
3.5279e-41
4.16278e-41
4.16278e-41
4.16278e-41
4.16278e-41
4.72025e-41
4.72025e-41
4.72025e-41
4.72025e-41
5.14345e-41
5.14345e-41
5.14345e-41
5.14345e-41
5.38575e-41
5.38575e-41
5.38575e-41
5.38575e-41
5.41919e-41
5.41919e-41
5.41919e-41
5.41919e-41
5.23979e-41
5.23979e-41
5.23979e-41
5.23979e-41
4.86832e-41
4.86832e-41
4.86832e-41
4.86832e-41
4.34636e-41
4.34636e-41
4.34636e-41
4.34636e-41
3.72863e-41
3.72863e-41
3.72863e-41
3.72863e-41
3.07358e-41
3.07358e-41
3.07358e-41
3.07358e-41
2.43449e-41
2.43449e-41
2.43449e-41
2.43449e-41
1.85283e-41
1.85283e-41
1.85283e-41
1.85283e-41
1.35494e-41
1.35494e-41
1.35494e-41
1.35494e-41
9.52059e-42
9.52059e-42
9.52059e-42
9.52059e-42
6.42774e-42
6.42774e-42
6.42774e-42
6.42774e-42
4.16967e-42
4.16967e-42
4.16967e-42
4.16967e-42
2.59891e-42
2.59891e-42
2.59891e-42
2.59891e-42
1.5564e-42
1.5564e-42
1.5564e-42
1.5564e-42
8.95554e-43
8.95554e-43
8.95554e-43
8.95554e-43
4.95106e-43
4.95106e-43
4.95106e-43
4.95106e-43
2.62989e-43
2.62989e-43
2.62989e-43
2.62989e-43
1.34217e-43
1.34217e-43
1.34217e-43
1.34217e-43
6.58122e-44
6.58122e-44
6.58122e-44
6.58122e-44
3.10049e-44
3.10049e-44
3.10049e-44
3.10049e-44
1.40339e-44
1.40339e-44
1.40339e-44
1.40339e-44
6.10305e-45
6.10305e-45
6.10305e-45
6.10305e-45
2.54997e-45
2.54997e-45
2.54997e-45
2.54997e-45
1.02362e-45
1.02362e-45
1.02362e-45
1.02362e-45
3.94783e-46
3.94783e-46
3.94783e-46
3.94783e-46
1.46282e-46
1.46282e-46
1.46282e-46
1.46282e-46
5.2074e-47
5.2074e-47
5.2074e-47
5.2074e-47
1.77832e-47
1.77832e-47
1.77832e-47
1.77832e-47
5.53177e-48
5.53177e-48
5.53177e-48
5.53177e-48
2.12863e-81
2.12863e-81
2.12863e-81
2.12863e-81
4.88682e-80
4.88682e-80
4.88682e-80
4.88682e-80
6.73667e-79
6.73667e-79
6.73667e-79
6.73667e-79
8.95319e-78
8.95319e-78
8.95319e-78
8.95319e-78
1.14705e-76
1.14705e-76
1.14705e-76
1.14705e-76
1.41651e-75
1.41651e-75
1.41651e-75
1.41651e-75
1.68595e-74
1.68595e-74
1.68595e-74
1.68595e-74
1.93383e-73
1.93383e-73
1.93383e-73
1.93383e-73
2.13748e-72
2.13748e-72
2.13748e-72
2.13748e-72
2.27645e-71
2.27645e-71
2.27645e-71
2.27645e-71
2.33585e-70
2.33585e-70
2.33585e-70
2.33585e-70
2.30902e-69
2.30902e-69
2.30902e-69
2.30902e-69
2.19871e-68
2.19871e-68
2.19871e-68
2.19871e-68
2.01665e-67
2.01665e-67
2.01665e-67
2.01665e-67
1.78148e-66
1.78148e-66
1.78148e-66
1.78148e-66
1.51559e-65
1.51559e-65
1.51559e-65
1.51559e-65
1.24166e-64
1.24166e-64
1.24166e-64
1.24166e-64
9.79518e-64
9.79518e-64
9.79518e-64
9.79518e-64
7.44004e-63
7.44004e-63
7.44004e-63
7.44004e-63
5.44078e-62
5.44078e-62
5.44078e-62
5.44078e-62
3.83037e-61
3.83037e-61
3.83037e-61
3.83037e-61
2.59587e-60
2.59587e-60
2.59587e-60
2.59587e-60
1.69341e-59
1.69341e-59
1.69341e-59
1.69341e-59
1.06328e-58
1.06328e-58
1.06328e-58
1.06328e-58
6.42558e-58
6.42558e-58
6.42558e-58
6.42558e-58
3.73708e-57
3.73708e-57
3.73708e-57
3.73708e-57
2.0916e-56
2.0916e-56
2.0916e-56
2.0916e-56
1.1265e-55
1.1265e-55
1.1265e-55
1.1265e-55
5.83797e-55
5.83797e-55
5.83797e-55
5.83797e-55
2.91105e-54
2.91105e-54
2.91105e-54
2.91105e-54
1.3966e-53
1.3966e-53
1.3966e-53
1.3966e-53
6.44622e-53
6.44622e-53
6.44622e-53
6.44622e-53
2.8624e-52
2.8624e-52
2.8624e-52
2.8624e-52
1.22272e-51
1.22272e-51
1.22272e-51
1.22272e-51
5.02426e-51
5.02426e-51
5.02426e-51
5.02426e-51
1.98587e-50
1.98587e-50
1.98587e-50
1.98587e-50
7.54991e-50
7.54991e-50
7.54991e-50
7.54991e-50
2.76076e-49
2.76076e-49
2.76076e-49
2.76076e-49
9.70945e-49
9.70945e-49
9.70945e-49
9.70945e-49
3.28414e-48
3.28414e-48
3.28414e-48
3.28414e-48
1.0683e-47
1.0683e-47
1.0683e-47
1.0683e-47
3.34193e-47
3.34193e-47
3.34193e-47
3.34193e-47
1.00535e-46
1.00535e-46
1.00535e-46
1.00535e-46
2.90827e-46
2.90827e-46
2.90827e-46
2.90827e-46
8.08986e-46
8.08986e-46
8.08986e-46
8.08986e-46
2.16381e-45
2.16381e-45
2.16381e-45
2.16381e-45
5.56496e-45
5.56496e-45
5.56496e-45
5.56496e-45
1.37619e-44
1.37619e-44
1.37619e-44
1.37619e-44
3.27411e-44
3.27411e-44
3.27411e-44
3.27411e-44
7.52305e-44
7.52305e-44
7.52305e-44
7.52305e-44
1.70281e-43
1.70281e-43
1.70281e-43
1.70281e-43
3.78183e-43
3.78183e-43
3.78183e-43
3.78183e-43
8.07394e-43
8.07394e-43
8.07394e-43
8.07394e-43
1.65694e-42
1.65694e-42
1.65694e-42
1.65694e-42
3.26854e-42
3.26854e-42
3.26854e-42
3.26854e-42
6.19751e-42
6.19751e-42
6.19751e-42
6.19751e-42
1.1295e-41
1.1295e-41
1.1295e-41
1.1295e-41
1.97859e-41
1.97859e-41
1.97859e-41
1.97859e-41
3.33129e-41
3.33129e-41
3.33129e-41
3.33129e-41
5.39075e-41
5.39075e-41
5.39075e-41
5.39075e-41
8.38413e-41
8.38413e-41
8.38413e-41
8.38413e-41
1.25323e-40
1.25323e-40
1.25323e-40
1.25323e-40
1.80035e-40
1.80035e-40
1.80035e-40
1.80035e-40
2.48562e-40
2.48562e-40
2.48562e-40
2.48562e-40
3.29802e-40
3.29802e-40
3.29802e-40
3.29802e-40
4.20538e-40
4.20538e-40
4.20538e-40
4.20538e-40
5.15331e-40
5.15331e-40
5.15331e-40
5.15331e-40
6.0686e-40
6.0686e-40
6.0686e-40
6.0686e-40
6.86763e-40
6.86763e-40
6.86763e-40
6.86763e-40
7.46852e-40
7.46852e-40
7.46852e-40
7.46852e-40
7.80488e-40
7.80488e-40
7.80488e-40
7.80488e-40
7.83785e-40
7.83785e-40
7.83785e-40
7.83785e-40
7.56348e-40
7.56348e-40
7.56348e-40
7.56348e-40
7.01349e-40
7.01349e-40
7.01349e-40
7.01349e-40
6.2493e-40
6.2493e-40
6.2493e-40
6.2493e-40
5.35066e-40
5.35066e-40
5.35066e-40
5.35066e-40
4.40208e-40
4.40208e-40
4.40208e-40
4.40208e-40
3.48e-40
3.48e-40
3.48e-40
3.48e-40
2.64342e-40
2.64342e-40
2.64342e-40
2.64342e-40
1.92938e-40
1.92938e-40
1.92938e-40
1.92938e-40
1.35309e-40
1.35309e-40
1.35309e-40
1.35309e-40
9.11782e-41
9.11782e-41
9.11782e-41
9.11782e-41
5.90348e-41
5.90348e-41
5.90348e-41
5.90348e-41
3.67259e-41
3.67259e-41
3.67259e-41
3.67259e-41
2.19525e-41
2.19525e-41
2.19525e-41
2.19525e-41
1.26077e-41
1.26077e-41
1.26077e-41
1.26077e-41
6.95712e-42
6.95712e-42
6.95712e-42
6.95712e-42
3.68858e-42
3.68858e-42
3.68858e-42
3.68858e-42
1.87898e-42
1.87898e-42
1.87898e-42
1.87898e-42
9.19639e-43
9.19639e-43
9.19639e-43
9.19639e-43
4.32456e-43
4.32456e-43
4.32456e-43
4.32456e-43
1.95386e-43
1.95386e-43
1.95386e-43
1.95386e-43
8.48143e-44
8.48143e-44
8.48143e-44
8.48143e-44
3.53727e-44
3.53727e-44
3.53727e-44
3.53727e-44
1.41738e-44
1.41738e-44
1.41738e-44
1.41738e-44
5.45663e-45
5.45663e-45
5.45663e-45
5.45663e-45
2.01827e-45
2.01827e-45
2.01827e-45
2.01827e-45
7.17193e-46
7.17193e-46
7.17193e-46
7.17193e-46
2.445e-46
2.445e-46
2.445e-46
2.445e-46
7.59984e-47
7.59984e-47
7.59984e-47
7.59984e-47
2.95382e-80
2.95382e-80
2.95382e-80
2.95382e-80
6.78506e-79
6.78506e-79
6.78506e-79
6.78506e-79
9.37056e-78
9.37056e-78
9.37056e-78
9.37056e-78
1.24758e-76
1.24758e-76
1.24758e-76
1.24758e-76
1.60111e-75
1.60111e-75
1.60111e-75
1.60111e-75
1.98054e-74
1.98054e-74
1.98054e-74
1.98054e-74
2.36109e-73
2.36109e-73
2.36109e-73
2.36109e-73
2.71251e-72
2.71251e-72
2.71251e-72
2.71251e-72
3.00274e-71
3.00274e-71
3.00274e-71
3.00274e-71
3.20268e-70
3.20268e-70
3.20268e-70
3.20268e-70
3.29096e-69
3.29096e-69
3.29096e-69
3.29096e-69
3.25767e-68
3.25767e-68
3.25767e-68
3.25767e-68
3.10621e-67
3.10621e-67
3.10621e-67
3.10621e-67
2.85271e-66
2.85271e-66
2.85271e-66
2.85271e-66
2.5232e-65
2.5232e-65
2.5232e-65
2.5232e-65
2.14923e-64
2.14923e-64
2.14923e-64
2.14923e-64
1.76284e-63
1.76284e-63
1.76284e-63
1.76284e-63
1.39224e-62
1.39224e-62
1.39224e-62
1.39224e-62
1.05865e-61
1.05865e-61
1.05865e-61
1.05865e-61
7.74995e-61
7.74995e-61
7.74995e-61
7.74995e-61
5.46163e-60
5.46163e-60
5.46163e-60
5.46163e-60
3.70505e-59
3.70505e-59
3.70505e-59
3.70505e-59
2.41928e-58
2.41928e-58
2.41928e-58
2.41928e-58
1.52044e-57
1.52044e-57
1.52044e-57
1.52044e-57
9.19645e-57
9.19645e-57
9.19645e-57
9.19645e-57
5.35316e-56
5.35316e-56
5.35316e-56
5.35316e-56
2.99858e-55
2.99858e-55
2.99858e-55
2.99858e-55
1.61627e-54
1.61627e-54
1.61627e-54
1.61627e-54
8.38255e-54
8.38255e-54
8.38255e-54
8.38255e-54
4.18297e-53
4.18297e-53
4.18297e-53
4.18297e-53
2.00824e-52
2.00824e-52
2.00824e-52
2.00824e-52
9.27569e-52
9.27569e-52
9.27569e-52
9.27569e-52
4.12152e-51
4.12152e-51
4.12152e-51
4.12152e-51
1.76169e-50
1.76169e-50
1.76169e-50
1.76169e-50
7.24338e-50
7.24338e-50
7.24338e-50
7.24338e-50
2.86467e-49
2.86467e-49
2.86467e-49
2.86467e-49
1.08972e-48
1.08972e-48
1.08972e-48
1.08972e-48
3.98692e-48
3.98692e-48
3.98692e-48
3.98692e-48
1.40291e-47
1.40291e-47
1.40291e-47
1.40291e-47
4.74764e-47
4.74764e-47
4.74764e-47
4.74764e-47
1.54512e-46
1.54512e-46
1.54512e-46
1.54512e-46
4.83579e-46
4.83579e-46
4.83579e-46
4.83579e-46
1.4554e-45
1.4554e-45
1.4554e-45
1.4554e-45
4.212e-45
4.212e-45
4.212e-45
4.212e-45
1.17213e-44
1.17213e-44
1.17213e-44
1.17213e-44
3.13637e-44
3.13637e-44
3.13637e-44
3.13637e-44
8.0693e-44
8.0693e-44
8.0693e-44
8.0693e-44
1.99623e-43
1.99623e-43
1.99623e-43
1.99623e-43
4.75066e-43
4.75066e-43
4.75066e-43
4.75066e-43
1.09159e-42
1.09159e-42
1.09159e-42
1.09159e-42
2.4681e-42
2.4681e-42
2.4681e-42
2.4681e-42
5.471e-42
5.471e-42
5.471e-42
5.471e-42
1.16578e-41
1.16578e-41
1.16578e-41
1.16578e-41
2.38783e-41
2.38783e-41
2.38783e-41
2.38783e-41
4.70126e-41
4.70126e-41
4.70126e-41
4.70126e-41
8.89694e-41
8.89694e-41
8.89694e-41
8.89694e-41
1.61836e-40
1.61836e-40
1.61836e-40
1.61836e-40
2.82946e-40
2.82946e-40
2.82946e-40
2.82946e-40
4.7547e-40
4.7547e-40
4.7547e-40
4.7547e-40
7.6793e-40
7.6793e-40
7.6793e-40
7.6793e-40
1.19204e-39
1.19204e-39
1.19204e-39
1.19204e-39
1.77839e-39
1.77839e-39
1.77839e-39
1.77839e-39
2.54986e-39
2.54986e-39
2.54986e-39
2.54986e-39
3.51364e-39
3.51364e-39
3.51364e-39
3.51364e-39
4.65307e-39
4.65307e-39
4.65307e-39
4.65307e-39
5.92186e-39
5.92186e-39
5.92186e-39
5.92186e-39
7.24278e-39
7.24278e-39
7.24278e-39
7.24278e-39
8.51287e-39
8.51287e-39
8.51287e-39
8.51287e-39
9.61531e-39
9.61531e-39
9.61531e-39
9.61531e-39
1.04367e-38
1.04367e-38
1.04367e-38
1.04367e-38
1.0886e-38
1.0886e-38
1.0886e-38
1.0886e-38
1.09112e-38
1.09112e-38
1.09112e-38
1.09112e-38
1.05093e-38
1.05093e-38
1.05093e-38
1.05093e-38
9.72666e-39
9.72666e-39
9.72666e-39
9.72666e-39
8.6505e-39
8.6505e-39
8.6505e-39
8.6505e-39
7.39264e-39
7.39264e-39
7.39264e-39
7.39264e-39
6.07066e-39
6.07066e-39
6.07066e-39
6.07066e-39
4.7901e-39
4.7901e-39
4.7901e-39
4.7901e-39
3.6318e-39
3.6318e-39
3.6318e-39
3.6318e-39
2.64585e-39
2.64585e-39
2.64585e-39
2.64585e-39
1.85212e-39
1.85212e-39
1.85212e-39
1.85212e-39
1.24576e-39
1.24576e-39
1.24576e-39
1.24576e-39
8.05101e-40
8.05101e-40
8.05101e-40
8.05101e-40
4.99941e-40
4.99941e-40
4.99941e-40
4.99941e-40
2.98288e-40
2.98288e-40
2.98288e-40
2.98288e-40
1.71001e-40
1.71001e-40
1.71001e-40
1.71001e-40
9.41899e-41
9.41899e-41
9.41899e-41
9.41899e-41
4.98482e-41
4.98482e-41
4.98482e-41
4.98482e-41
2.53473e-41
2.53473e-41
2.53473e-41
2.53473e-41
1.23837e-41
1.23837e-41
1.23837e-41
1.23837e-41
5.81298e-42
5.81298e-42
5.81298e-42
5.81298e-42
2.62167e-42
2.62167e-42
2.62167e-42
2.62167e-42
1.13602e-42
1.13602e-42
1.13602e-42
1.13602e-42
4.72954e-43
4.72954e-43
4.72954e-43
4.72954e-43
1.89181e-43
1.89181e-43
1.89181e-43
1.89181e-43
7.27036e-44
7.27036e-44
7.27036e-44
7.27036e-44
2.68445e-44
2.68445e-44
2.68445e-44
2.68445e-44
9.52272e-45
9.52272e-45
9.52272e-45
9.52272e-45
3.241e-45
3.241e-45
3.241e-45
3.241e-45
1.00671e-45
1.00671e-45
1.00671e-45
1.00671e-45
3.93788e-79
3.93788e-79
3.93788e-79
3.93788e-79
9.05012e-78
9.05012e-78
9.05012e-78
9.05012e-78
1.25217e-76
1.25217e-76
1.25217e-76
1.25217e-76
1.6701e-75
1.6701e-75
1.6701e-75
1.6701e-75
2.14707e-74
2.14707e-74
2.14707e-74
2.14707e-74
2.66035e-73
2.66035e-73
2.66035e-73
2.66035e-73
3.1767e-72
3.1767e-72
3.1767e-72
3.1767e-72
3.65527e-71
3.65527e-71
3.65527e-71
3.65527e-71
4.05258e-70
4.05258e-70
4.05258e-70
4.05258e-70
4.32885e-69
4.32885e-69
4.32885e-69
4.32885e-69
4.45457e-68
4.45457e-68
4.45457e-68
4.45457e-68
4.41565e-67
4.41565e-67
4.41565e-67
4.41565e-67
4.21602e-66
4.21602e-66
4.21602e-66
4.21602e-66
3.87699e-65
3.87699e-65
3.87699e-65
3.87699e-65
3.4335e-64
3.4335e-64
3.4335e-64
3.4335e-64
2.92816e-63
2.92816e-63
2.92816e-63
2.92816e-63
2.40457e-62
2.40457e-62
2.40457e-62
2.40457e-62
1.90122e-61
1.90122e-61
1.90122e-61
1.90122e-61
1.44727e-60
1.44727e-60
1.44727e-60
1.44727e-60
1.06061e-59