# vtk DataFile Version 2.0
dg(0) output generated by Nextsim
ASCII
DATASET UNSTRUCTURED_GRID
FIELD FieldData 1
TIME 1 1 double
0
POINTS 40000 DOUBLE
0	0	0
0.01	0	0
0.01	0.01	0
0	0.01	0
0.01	0	0
0.02	0	0
0.02	0.01	0
0.01	0.01	0
0.02	0	0
0.03	0	0
0.03	0.01	0
0.02	0.01	0
0.03	0	0
0.04	0	0
0.04	0.01	0
0.03	0.01	0
0.04	0	0
0.05	0	0
0.05	0.01	0
0.04	0.01	0
0.05	0	0
0.06	0	0
0.06	0.01	0
0.05	0.01	0
0.06	0	0
0.07	0	0
0.07	0.01	0
0.06	0.01	0
0.07	0	0
0.08	0	0
0.08	0.01	0
0.07	0.01	0
0.08	0	0
0.09	0	0
0.09	0.01	0
0.08	0.01	0
0.09	0	0
0.1	0	0
0.1	0.01	0
0.09	0.01	0
0.1	0	0
0.11	0	0
0.11	0.01	0
0.1	0.01	0
0.11	0	0
0.12	0	0
0.12	0.01	0
0.11	0.01	0
0.12	0	0
0.13	0	0
0.13	0.01	0
0.12	0.01	0
0.13	0	0
0.14	0	0
0.14	0.01	0
0.13	0.01	0
0.14	0	0
0.15	0	0
0.15	0.01	0
0.14	0.01	0
0.15	0	0
0.16	0	0
0.16	0.01	0
0.15	0.01	0
0.16	0	0
0.17	0	0
0.17	0.01	0
0.16	0.01	0
0.17	0	0
0.18	0	0
0.18	0.01	0
0.17	0.01	0
0.18	0	0
0.19	0	0
0.19	0.01	0
0.18	0.01	0
0.19	0	0
0.2	0	0
0.2	0.01	0
0.19	0.01	0
0.2	0	0
0.21	0	0
0.21	0.01	0
0.2	0.01	0
0.21	0	0
0.22	0	0
0.22	0.01	0
0.21	0.01	0
0.22	0	0
0.23	0	0
0.23	0.01	0
0.22	0.01	0
0.23	0	0
0.24	0	0
0.24	0.01	0
0.23	0.01	0
0.24	0	0
0.25	0	0
0.25	0.01	0
0.24	0.01	0
0.25	0	0
0.26	0	0
0.26	0.01	0
0.25	0.01	0
0.26	0	0
0.27	0	0
0.27	0.01	0
0.26	0.01	0
0.27	0	0
0.28	0	0
0.28	0.01	0
0.27	0.01	0
0.28	0	0
0.29	0	0
0.29	0.01	0
0.28	0.01	0
0.29	0	0
0.3	0	0
0.3	0.01	0
0.29	0.01	0
0.3	0	0
0.31	0	0
0.31	0.01	0
0.3	0.01	0
0.31	0	0
0.32	0	0
0.32	0.01	0
0.31	0.01	0
0.32	0	0
0.33	0	0
0.33	0.01	0
0.32	0.01	0
0.33	0	0
0.34	0	0
0.34	0.01	0
0.33	0.01	0
0.34	0	0
0.35	0	0
0.35	0.01	0
0.34	0.01	0
0.35	0	0
0.36	0	0
0.36	0.01	0
0.35	0.01	0
0.36	0	0
0.37	0	0
0.37	0.01	0
0.36	0.01	0
0.37	0	0
0.38	0	0
0.38	0.01	0
0.37	0.01	0
0.38	0	0
0.39	0	0
0.39	0.01	0
0.38	0.01	0
0.39	0	0
0.4	0	0
0.4	0.01	0
0.39	0.01	0
0.4	0	0
0.41	0	0
0.41	0.01	0
0.4	0.01	0
0.41	0	0
0.42	0	0
0.42	0.01	0
0.41	0.01	0
0.42	0	0
0.43	0	0
0.43	0.01	0
0.42	0.01	0
0.43	0	0
0.44	0	0
0.44	0.01	0
0.43	0.01	0
0.44	0	0
0.45	0	0
0.45	0.01	0
0.44	0.01	0
0.45	0	0
0.46	0	0
0.46	0.01	0
0.45	0.01	0
0.46	0	0
0.47	0	0
0.47	0.01	0
0.46	0.01	0
0.47	0	0
0.48	0	0
0.48	0.01	0
0.47	0.01	0
0.48	0	0
0.49	0	0
0.49	0.01	0
0.48	0.01	0
0.49	0	0
0.5	0	0
0.5	0.01	0
0.49	0.01	0
0.5	0	0
0.51	0	0
0.51	0.01	0
0.5	0.01	0
0.51	0	0
0.52	0	0
0.52	0.01	0
0.51	0.01	0
0.52	0	0
0.53	0	0
0.53	0.01	0
0.52	0.01	0
0.53	0	0
0.54	0	0
0.54	0.01	0
0.53	0.01	0
0.54	0	0
0.55	0	0
0.55	0.01	0
0.54	0.01	0
0.55	0	0
0.56	0	0
0.56	0.01	0
0.55	0.01	0
0.56	0	0
0.57	0	0
0.57	0.01	0
0.56	0.01	0
0.57	0	0
0.58	0	0
0.58	0.01	0
0.57	0.01	0
0.58	0	0
0.59	0	0
0.59	0.01	0
0.58	0.01	0
0.59	0	0
0.6	0	0
0.6	0.01	0
0.59	0.01	0
0.6	0	0
0.61	0	0
0.61	0.01	0
0.6	0.01	0
0.61	0	0
0.62	0	0
0.62	0.01	0
0.61	0.01	0
0.62	0	0
0.63	0	0
0.63	0.01	0
0.62	0.01	0
0.63	0	0
0.64	0	0
0.64	0.01	0
0.63	0.01	0
0.64	0	0
0.65	0	0
0.65	0.01	0
0.64	0.01	0
0.65	0	0
0.66	0	0
0.66	0.01	0
0.65	0.01	0
0.66	0	0
0.67	0	0
0.67	0.01	0
0.66	0.01	0
0.67	0	0
0.68	0	0
0.68	0.01	0
0.67	0.01	0
0.68	0	0
0.69	0	0
0.69	0.01	0
0.68	0.01	0
0.69	0	0
0.7	0	0
0.7	0.01	0
0.69	0.01	0
0.7	0	0
0.71	0	0
0.71	0.01	0
0.7	0.01	0
0.71	0	0
0.72	0	0
0.72	0.01	0
0.71	0.01	0
0.72	0	0
0.73	0	0
0.73	0.01	0
0.72	0.01	0
0.73	0	0
0.74	0	0
0.74	0.01	0
0.73	0.01	0
0.74	0	0
0.75	0	0
0.75	0.01	0
0.74	0.01	0
0.75	0	0
0.76	0	0
0.76	0.01	0
0.75	0.01	0
0.76	0	0
0.77	0	0
0.77	0.01	0
0.76	0.01	0
0.77	0	0
0.78	0	0
0.78	0.01	0
0.77	0.01	0
0.78	0	0
0.79	0	0
0.79	0.01	0
0.78	0.01	0
0.79	0	0
0.8	0	0
0.8	0.01	0
0.79	0.01	0
0.8	0	0
0.81	0	0
0.81	0.01	0
0.8	0.01	0
0.81	0	0
0.82	0	0
0.82	0.01	0
0.81	0.01	0
0.82	0	0
0.83	0	0
0.83	0.01	0
0.82	0.01	0
0.83	0	0
0.84	0	0
0.84	0.01	0
0.83	0.01	0
0.84	0	0
0.85	0	0
0.85	0.01	0
0.84	0.01	0
0.85	0	0
0.86	0	0
0.86	0.01	0
0.85	0.01	0
0.86	0	0
0.87	0	0
0.87	0.01	0
0.86	0.01	0
0.87	0	0
0.88	0	0
0.88	0.01	0
0.87	0.01	0
0.88	0	0
0.89	0	0
0.89	0.01	0
0.88	0.01	0
0.89	0	0
0.9	0	0
0.9	0.01	0
0.89	0.01	0
0.9	0	0
0.91	0	0
0.91	0.01	0
0.9	0.01	0
0.91	0	0
0.92	0	0
0.92	0.01	0
0.91	0.01	0
0.92	0	0
0.93	0	0
0.93	0.01	0
0.92	0.01	0
0.93	0	0
0.94	0	0
0.94	0.01	0
0.93	0.01	0
0.94	0	0
0.95	0	0
0.95	0.01	0
0.94	0.01	0
0.95	0	0
0.96	0	0
0.96	0.01	0
0.95	0.01	0
0.96	0	0
0.97	0	0
0.97	0.01	0
0.96	0.01	0
0.97	0	0
0.98	0	0
0.98	0.01	0
0.97	0.01	0
0.98	0	0
0.99	0	0
0.99	0.01	0
0.98	0.01	0
0.99	0	0
1	0	0
1	0.01	0
0.99	0.01	0
0	0.01	0
0.01	0.01	0
0.01	0.02	0
0	0.02	0
0.01	0.01	0
0.02	0.01	0
0.02	0.02	0
0.01	0.02	0
0.02	0.01	0
0.03	0.01	0
0.03	0.02	0
0.02	0.02	0
0.03	0.01	0
0.04	0.01	0
0.04	0.02	0
0.03	0.02	0
0.04	0.01	0
0.05	0.01	0
0.05	0.02	0
0.04	0.02	0
0.05	0.01	0
0.06	0.01	0
0.06	0.02	0
0.05	0.02	0
0.06	0.01	0
0.07	0.01	0
0.07	0.02	0
0.06	0.02	0
0.07	0.01	0
0.08	0.01	0
0.08	0.02	0
0.07	0.02	0
0.08	0.01	0
0.09	0.01	0
0.09	0.02	0
0.08	0.02	0
0.09	0.01	0
0.1	0.01	0
0.1	0.02	0
0.09	0.02	0
0.1	0.01	0
0.11	0.01	0
0.11	0.02	0
0.1	0.02	0
0.11	0.01	0
0.12	0.01	0
0.12	0.02	0
0.11	0.02	0
0.12	0.01	0
0.13	0.01	0
0.13	0.02	0
0.12	0.02	0
0.13	0.01	0
0.14	0.01	0
0.14	0.02	0
0.13	0.02	0
0.14	0.01	0
0.15	0.01	0
0.15	0.02	0
0.14	0.02	0
0.15	0.01	0
0.16	0.01	0
0.16	0.02	0
0.15	0.02	0
0.16	0.01	0
0.17	0.01	0
0.17	0.02	0
0.16	0.02	0
0.17	0.01	0
0.18	0.01	0
0.18	0.02	0
0.17	0.02	0
0.18	0.01	0
0.19	0.01	0
0.19	0.02	0
0.18	0.02	0
0.19	0.01	0
0.2	0.01	0
0.2	0.02	0
0.19	0.02	0
0.2	0.01	0
0.21	0.01	0
0.21	0.02	0
0.2	0.02	0
0.21	0.01	0
0.22	0.01	0
0.22	0.02	0
0.21	0.02	0
0.22	0.01	0
0.23	0.01	0
0.23	0.02	0
0.22	0.02	0
0.23	0.01	0
0.24	0.01	0
0.24	0.02	0
0.23	0.02	0
0.24	0.01	0
0.25	0.01	0
0.25	0.02	0
0.24	0.02	0
0.25	0.01	0
0.26	0.01	0
0.26	0.02	0
0.25	0.02	0
0.26	0.01	0
0.27	0.01	0
0.27	0.02	0
0.26	0.02	0
0.27	0.01	0
0.28	0.01	0
0.28	0.02	0
0.27	0.02	0
0.28	0.01	0
0.29	0.01	0
0.29	0.02	0
0.28	0.02	0
0.29	0.01	0
0.3	0.01	0
0.3	0.02	0
0.29	0.02	0
0.3	0.01	0
0.31	0.01	0
0.31	0.02	0
0.3	0.02	0
0.31	0.01	0
0.32	0.01	0
0.32	0.02	0
0.31	0.02	0
0.32	0.01	0
0.33	0.01	0
0.33	0.02	0
0.32	0.02	0
0.33	0.01	0
0.34	0.01	0
0.34	0.02	0
0.33	0.02	0
0.34	0.01	0
0.35	0.01	0
0.35	0.02	0
0.34	0.02	0
0.35	0.01	0
0.36	0.01	0
0.36	0.02	0
0.35	0.02	0
0.36	0.01	0
0.37	0.01	0
0.37	0.02	0
0.36	0.02	0
0.37	0.01	0
0.38	0.01	0
0.38	0.02	0
0.37	0.02	0
0.38	0.01	0
0.39	0.01	0
0.39	0.02	0
0.38	0.02	0
0.39	0.01	0
0.4	0.01	0
0.4	0.02	0
0.39	0.02	0
0.4	0.01	0
0.41	0.01	0
0.41	0.02	0
0.4	0.02	0
0.41	0.01	0
0.42	0.01	0
0.42	0.02	0
0.41	0.02	0
0.42	0.01	0
0.43	0.01	0
0.43	0.02	0
0.42	0.02	0
0.43	0.01	0
0.44	0.01	0
0.44	0.02	0
0.43	0.02	0
0.44	0.01	0
0.45	0.01	0
0.45	0.02	0
0.44	0.02	0
0.45	0.01	0
0.46	0.01	0
0.46	0.02	0
0.45	0.02	0
0.46	0.01	0
0.47	0.01	0
0.47	0.02	0
0.46	0.02	0
0.47	0.01	0
0.48	0.01	0
0.48	0.02	0
0.47	0.02	0
0.48	0.01	0
0.49	0.01	0
0.49	0.02	0
0.48	0.02	0
0.49	0.01	0
0.5	0.01	0
0.5	0.02	0
0.49	0.02	0
0.5	0.01	0
0.51	0.01	0
0.51	0.02	0
0.5	0.02	0
0.51	0.01	0
0.52	0.01	0
0.52	0.02	0
0.51	0.02	0
0.52	0.01	0
0.53	0.01	0
0.53	0.02	0
0.52	0.02	0
0.53	0.01	0
0.54	0.01	0
0.54	0.02	0
0.53	0.02	0
0.54	0.01	0
0.55	0.01	0
0.55	0.02	0
0.54	0.02	0
0.55	0.01	0
0.56	0.01	0
0.56	0.02	0
0.55	0.02	0
0.56	0.01	0
0.57	0.01	0
0.57	0.02	0
0.56	0.02	0
0.57	0.01	0
0.58	0.01	0
0.58	0.02	0
0.57	0.02	0
0.58	0.01	0
0.59	0.01	0
0.59	0.02	0
0.58	0.02	0
0.59	0.01	0
0.6	0.01	0
0.6	0.02	0
0.59	0.02	0
0.6	0.01	0
0.61	0.01	0
0.61	0.02	0
0.6	0.02	0
0.61	0.01	0
0.62	0.01	0
0.62	0.02	0
0.61	0.02	0
0.62	0.01	0
0.63	0.01	0
0.63	0.02	0
0.62	0.02	0
0.63	0.01	0
0.64	0.01	0
0.64	0.02	0
0.63	0.02	0
0.64	0.01	0
0.65	0.01	0
0.65	0.02	0
0.64	0.02	0
0.65	0.01	0
0.66	0.01	0
0.66	0.02	0
0.65	0.02	0
0.66	0.01	0
0.67	0.01	0
0.67	0.02	0
0.66	0.02	0
0.67	0.01	0
0.68	0.01	0
0.68	0.02	0
0.67	0.02	0
0.68	0.01	0
0.69	0.01	0
0.69	0.02	0
0.68	0.02	0
0.69	0.01	0
0.7	0.01	0
0.7	0.02	0
0.69	0.02	0
0.7	0.01	0
0.71	0.01	0
0.71	0.02	0
0.7	0.02	0
0.71	0.01	0
0.72	0.01	0
0.72	0.02	0
0.71	0.02	0
0.72	0.01	0
0.73	0.01	0
0.73	0.02	0
0.72	0.02	0
0.73	0.01	0
0.74	0.01	0
0.74	0.02	0
0.73	0.02	0
0.74	0.01	0
0.75	0.01	0
0.75	0.02	0
0.74	0.02	0
0.75	0.01	0
0.76	0.01	0
0.76	0.02	0
0.75	0.02	0
0.76	0.01	0
0.77	0.01	0
0.77	0.02	0
0.76	0.02	0
0.77	0.01	0
0.78	0.01	0
0.78	0.02	0
0.77	0.02	0
0.78	0.01	0
0.79	0.01	0
0.79	0.02	0
0.78	0.02	0
0.79	0.01	0
0.8	0.01	0
0.8	0.02	0
0.79	0.02	0
0.8	0.01	0
0.81	0.01	0
0.81	0.02	0
0.8	0.02	0
0.81	0.01	0
0.82	0.01	0
0.82	0.02	0
0.81	0.02	0
0.82	0.01	0
0.83	0.01	0
0.83	0.02	0
0.82	0.02	0
0.83	0.01	0
0.84	0.01	0
0.84	0.02	0
0.83	0.02	0
0.84	0.01	0
0.85	0.01	0
0.85	0.02	0
0.84	0.02	0
0.85	0.01	0
0.86	0.01	0
0.86	0.02	0
0.85	0.02	0
0.86	0.01	0
0.87	0.01	0
0.87	0.02	0
0.86	0.02	0
0.87	0.01	0
0.88	0.01	0
0.88	0.02	0
0.87	0.02	0
0.88	0.01	0
0.89	0.01	0
0.89	0.02	0
0.88	0.02	0
0.89	0.01	0
0.9	0.01	0
0.9	0.02	0
0.89	0.02	0
0.9	0.01	0
0.91	0.01	0
0.91	0.02	0
0.9	0.02	0
0.91	0.01	0
0.92	0.01	0
0.92	0.02	0
0.91	0.02	0
0.92	0.01	0
0.93	0.01	0
0.93	0.02	0
0.92	0.02	0
0.93	0.01	0
0.94	0.01	0
0.94	0.02	0
0.93	0.02	0
0.94	0.01	0
0.95	0.01	0
0.95	0.02	0
0.94	0.02	0
0.95	0.01	0
0.96	0.01	0
0.96	0.02	0
0.95	0.02	0
0.96	0.01	0
0.97	0.01	0
0.97	0.02	0
0.96	0.02	0
0.97	0.01	0
0.98	0.01	0
0.98	0.02	0
0.97	0.02	0
0.98	0.01	0
0.99	0.01	0
0.99	0.02	0
0.98	0.02	0
0.99	0.01	0
1	0.01	0
1	0.02	0
0.99	0.02	0
0	0.02	0
0.01	0.02	0
0.01	0.03	0
0	0.03	0
0.01	0.02	0
0.02	0.02	0
0.02	0.03	0
0.01	0.03	0
0.02	0.02	0
0.03	0.02	0
0.03	0.03	0
0.02	0.03	0
0.03	0.02	0
0.04	0.02	0
0.04	0.03	0
0.03	0.03	0
0.04	0.02	0
0.05	0.02	0
0.05	0.03	0
0.04	0.03	0
0.05	0.02	0
0.06	0.02	0
0.06	0.03	0
0.05	0.03	0
0.06	0.02	0
0.07	0.02	0
0.07	0.03	0
0.06	0.03	0
0.07	0.02	0
0.08	0.02	0
0.08	0.03	0
0.07	0.03	0
0.08	0.02	0
0.09	0.02	0
0.09	0.03	0
0.08	0.03	0
0.09	0.02	0
0.1	0.02	0
0.1	0.03	0
0.09	0.03	0
0.1	0.02	0
0.11	0.02	0
0.11	0.03	0
0.1	0.03	0
0.11	0.02	0
0.12	0.02	0
0.12	0.03	0
0.11	0.03	0
0.12	0.02	0
0.13	0.02	0
0.13	0.03	0
0.12	0.03	0
0.13	0.02	0
0.14	0.02	0
0.14	0.03	0
0.13	0.03	0
0.14	0.02	0
0.15	0.02	0
0.15	0.03	0
0.14	0.03	0
0.15	0.02	0
0.16	0.02	0
0.16	0.03	0
0.15	0.03	0
0.16	0.02	0
0.17	0.02	0
0.17	0.03	0
0.16	0.03	0
0.17	0.02	0
0.18	0.02	0
0.18	0.03	0
0.17	0.03	0
0.18	0.02	0
0.19	0.02	0
0.19	0.03	0
0.18	0.03	0
0.19	0.02	0
0.2	0.02	0
0.2	0.03	0
[...]
POINT_DATA 40000
SCALARS dg0 DOUBLE 
LOOKUP_TABLE default
1.33584e-78
1.33584e-78
1.33584e-78
1.33584e-78
2.45359e-77
2.45359e-77
2.45359e-77
2.45359e-77
2.2653e-76
2.2653e-76
2.2653e-76
2.2653e-76
2.03677e-75
2.03677e-75
2.03677e-75
2.03677e-75
1.78301e-74
1.78301e-74
1.78301e-74
1.78301e-74
1.51939e-73
1.51939e-73
1.51939e-73
1.51939e-73
1.26006e-72
1.26006e-72
1.26006e-72
1.26006e-72
1.01676e-71
1.01676e-71
1.01676e-71
1.01676e-71
7.981e-71
7.981e-71
7.981e-71
7.981e-71
6.09272e-70
6.09272e-70
6.09272e-70
6.09272e-70
4.52254e-69
4.52254e-69
4.52254e-69
4.52254e-69
3.26343e-68
3.26343e-68
3.26343e-68
3.26343e-68
2.28869e-67
2.28869e-67
2.28869e-67
2.28869e-67
1.55965e-66
1.55965e-66
1.55965e-66
1.55965e-66
1.03251e-65
1.03251e-65
1.03251e-65
1.03251e-65
6.6389e-65
6.6389e-65
6.6389e-65
6.6389e-65
4.14507e-64
4.14507e-64
4.14507e-64
4.14507e-64
2.51251e-63
2.51251e-63
2.51251e-63
2.51251e-63
1.47818e-62
1.47818e-62
1.47818e-62
1.47818e-62
8.43906e-62
8.43906e-62
8.43906e-62
8.43906e-62
4.67429e-61
4.67429e-61
4.67429e-61
4.67429e-61
2.51129e-60
2.51129e-60
2.51129e-60
2.51129e-60
1.30841e-59
1.30841e-59
1.30841e-59
1.30841e-59
6.6094e-59
6.6094e-59
6.6094e-59
6.6094e-59
3.2364e-58
3.2364e-58
3.2364e-58
3.2364e-58
1.53586e-57
1.53586e-57
1.53586e-57
1.53586e-57
7.06221e-57
7.06221e-57
7.06221e-57
7.06221e-57
3.14586e-56
3.14586e-56
3.14586e-56
3.14586e-56
1.35724e-55
1.35724e-55
1.35724e-55
1.35724e-55
5.67035e-55
5.67035e-55
5.67035e-55
5.67035e-55
2.29355e-54
2.29355e-54
2.29355e-54
2.29355e-54
8.97983e-54
8.97983e-54
8.97983e-54
8.97983e-54
3.40255e-53
3.40255e-53
3.40255e-53
3.40255e-53
1.24748e-52
1.24748e-52
1.24748e-52
1.24748e-52
4.42462e-52
4.42462e-52
4.42462e-52
4.42462e-52
1.51792e-51
1.51792e-51
1.51792e-51
1.51792e-51
5.03585e-51
5.03585e-51
5.03585e-51
5.03585e-51
1.61536e-50
1.61536e-50
1.61536e-50
1.61536e-50
5.00916e-50
5.00916e-50
5.00916e-50
5.00916e-50
1.50136e-49
1.50136e-49
1.50136e-49
1.50136e-49
4.34881e-49
4.34881e-49
4.34881e-49
4.34881e-49
1.21728e-48
1.21728e-48
1.21728e-48
1.21728e-48
3.29416e-48
3.29416e-48
3.29416e-48
3.29416e-48
8.66529e-48
8.66529e-48
8.66529e-48
8.66529e-48
2.35103e-47
2.35103e-47
2.35103e-47
2.35103e-47
1.04176e-46
1.04176e-46
1.04176e-46
1.04176e-46
1.56476e-45
1.56476e-45
1.56476e-45
1.56476e-45
3.96441e-44
3.96441e-44
3.96441e-44
3.96441e-44
1.04147e-42
1.04147e-42
1.04147e-42
1.04147e-42
2.65834e-41
2.65834e-41
2.65834e-41
2.65834e-41
6.5502e-40
6.5502e-40
6.5502e-40
6.5502e-40
1.51361e-38
1.51361e-38
1.51361e-38
1.51361e-38
3.17474e-37
3.17474e-37
3.17474e-37
3.17474e-37
6.00166e-36
6.00166e-36
6.00166e-36
6.00166e-36
1.0143e-34
1.0143e-34
1.0143e-34
1.0143e-34
1.51793e-33
1.51793e-33
1.51793e-33
1.51793e-33
1.98909e-32
1.98909e-32
1.98909e-32
1.98909e-32
2.25213e-31
2.25213e-31
2.25213e-31
2.25213e-31
2.16902e-30
2.16902e-30
2.16902e-30
2.16902e-30
1.7453e-29
1.7453e-29
1.7453e-29
1.7453e-29
1.15145e-28
1.15145e-28
1.15145e-28
1.15145e-28
6.13868e-28
6.13868e-28
6.13868e-28
6.13868e-28
2.64968e-27
2.64968e-27
2.64968e-27
2.64968e-27
9.55804e-27
9.55804e-27
9.55804e-27
9.55804e-27
2.97253e-26
2.97253e-26
2.97253e-26
2.97253e-26
7.52893e-26
7.52893e-26
7.52893e-26
7.52893e-26
1.38679e-25
1.38679e-25
1.38679e-25
1.38679e-25
1.4425e-25
1.4425e-25
1.4425e-25
1.4425e-25
3.16953e-26
3.16953e-26
3.16953e-26
3.16953e-26
3.19351e-26
3.19351e-26
3.19351e-26
3.19351e-26
6.66307e-27
6.66307e-27
6.66307e-27
6.66307e-27
6.30849e-27
6.30849e-27
6.30849e-27
6.30849e-27
4.51341e-28
4.51341e-28
4.51341e-28
4.51341e-28
9.26804e-31
9.26804e-31
9.26804e-31
9.26804e-31
1.80663e-33
1.80663e-33
1.80663e-33
1.80663e-33
3.2126e-39
3.2126e-39
3.2126e-39
3.2126e-39
3.25379e-39
3.25379e-39
3.25379e-39
3.25379e-39
3.16282e-39
3.16282e-39
3.16282e-39
3.16282e-39
2.95057e-39
2.95057e-39
2.95057e-39
2.95057e-39
2.64167e-39
2.64167e-39
2.64167e-39
2.64167e-39
2.26981e-39
2.26981e-39
2.26981e-39
2.26981e-39
1.87168e-39
1.87168e-39
1.87168e-39
1.87168e-39
1.48116e-39
1.48116e-39
1.48116e-39
1.48116e-39
1.12486e-39
1.12486e-39
1.12486e-39
1.12486e-39
8.19819e-40
8.19819e-40
8.19819e-40
8.19819e-40
5.73399e-40
5.73399e-40
5.73399e-40
5.73399e-40
3.84868e-40
3.84868e-40
3.84868e-40
3.84868e-40
2.47903e-40
2.47903e-40
2.47903e-40
2.47903e-40
1.53238e-40
1.53238e-40
1.53238e-40
1.53238e-40
9.08993e-41
9.08993e-41
9.08993e-41
9.08993e-41
5.17446e-41
5.17446e-41
5.17446e-41
5.17446e-41
2.8267e-41
2.8267e-41
2.8267e-41
2.8267e-41
1.48184e-41
1.48184e-41
1.48184e-41
1.48184e-41
7.45473e-42
7.45473e-42
7.45473e-42
7.45473e-42
3.59887e-42
3.59887e-42
3.59887e-42
3.59887e-42
1.66711e-42
1.66711e-42
1.66711e-42
1.66711e-42
7.40344e-43
7.40344e-43
7.40344e-43
7.40344e-43
3.12929e-43
3.12929e-43
3.12929e-43
3.12929e-43
1.20282e-43
1.20282e-43
1.20282e-43
1.20282e-43
3.32567e-44
3.32567e-44
3.32567e-44
3.32567e-44
1.80225e-77
1.80225e-77
1.80225e-77
1.80225e-77
3.31885e-76
3.31885e-76
3.31885e-76
3.31885e-76
3.07968e-75
3.07968e-75
3.07968e-75
3.07968e-75
2.78271e-74
2.78271e-74
2.78271e-74
2.78271e-74
2.44784e-73
2.44784e-73
2.44784e-73
2.44784e-73
2.0958e-72
2.0958e-72
2.0958e-72
2.0958e-72
1.74613e-71
1.74613e-71
1.74613e-71
1.74613e-71
1.41534e-70
1.41534e-70
1.41534e-70
1.41534e-70
1.11586e-69
1.11586e-69
1.11586e-69
1.11586e-69
8.55512e-69
8.55512e-69
8.55512e-69
8.55512e-69
6.37692e-68
6.37692e-68
6.37692e-68
6.37692e-68
4.62027e-67
4.62027e-67
4.62027e-67
4.62027e-67
3.25311e-66
3.25311e-66
3.25311e-66
3.25311e-66
2.2254e-65
2.2254e-65
2.2254e-65
2.2254e-65
1.47876e-64
1.47876e-64
1.47876e-64
1.47876e-64
9.54266e-64
9.54266e-64
9.54266e-64
9.54266e-64
5.97903e-63
5.97903e-63
5.97903e-63
5.97903e-63
3.63649e-62
3.63649e-62
3.63649e-62
3.63649e-62
2.1465e-61
2.1465e-61
2.1465e-61
2.1465e-61
1.22936e-60
1.22936e-60
1.22936e-60
1.22936e-60
6.83023e-60
6.83023e-60
6.83023e-60
6.83023e-60
3.68047e-59
3.68047e-59
3.68047e-59
3.68047e-59
1.92305e-58
1.92305e-58
1.92305e-58
1.92305e-58
9.74099e-58
9.74099e-58
9.74099e-58
9.74099e-58
4.78245e-57
4.78245e-57
4.78245e-57
4.78245e-57
2.27532e-56
2.27532e-56
2.27532e-56
2.27532e-56
1.04879e-55
1.04879e-55
1.04879e-55
1.04879e-55
4.6827e-55
4.6827e-55
4.6827e-55
4.6827e-55
2.0248e-54
2.0248e-54
2.0248e-54
2.0248e-54
8.47726e-54
8.47726e-54
8.47726e-54
8.47726e-54
3.43584e-53
3.43584e-53
3.43584e-53
3.43584e-53
1.34781e-52
1.34781e-52
1.34781e-52
1.34781e-52
5.11631e-52
5.11631e-52
5.11631e-52
5.11631e-52
1.87905e-51
1.87905e-51
1.87905e-51
1.87905e-51
6.67556e-51
6.67556e-51
6.67556e-51
6.67556e-51
2.29365e-50
2.29365e-50
2.29365e-50
2.29365e-50
7.62042e-50
7.62042e-50
7.62042e-50
7.62042e-50
2.44774e-49
2.44774e-49
2.44774e-49
2.44774e-49
7.59995e-49
7.59995e-49
7.59995e-49
7.59995e-49
2.28061e-48
2.28061e-48
2.28061e-48
2.28061e-48
6.61366e-48
6.61366e-48
6.61366e-48
6.61366e-48
1.8538e-47
1.8538e-47
1.8538e-47
1.8538e-47
5.03532e-47
5.03532e-47
5.03532e-47
5.03532e-47
1.36244e-46
1.36244e-46
1.36244e-46
1.36244e-46
4.74541e-46
4.74541e-46
4.74541e-46
4.74541e-46
4.88806e-45
4.88806e-45
4.88806e-45
4.88806e-45
1.15686e-43
1.15686e-43
1.15686e-43
1.15686e-43
3.07995e-42
3.07995e-42
3.07995e-42
3.07995e-42
8.03411e-41
8.03411e-41
8.03411e-41
8.03411e-41
2.02487e-39
2.02487e-39
2.02487e-39
2.02487e-39
4.92127e-38
4.92127e-38
4.92127e-38
4.92127e-38
1.12078e-36
1.12078e-36
1.12078e-36
1.12078e-36
2.31495e-35
2.31495e-35
2.31495e-35
2.31495e-35
4.30624e-34
4.30624e-34
4.30624e-34
4.30624e-34
7.15557e-33
7.15557e-33
7.15557e-33
7.15557e-33
1.05199e-31
1.05199e-31
1.05199e-31
1.05199e-31
1.35289e-30
1.35289e-30
1.35289e-30
1.35289e-30
1.50138e-29
1.50138e-29
1.50138e-29
1.50138e-29
1.41476e-28
1.41476e-28
1.41476e-28
1.41476e-28
1.11089e-27
1.11089e-27
1.11089e-27
1.11089e-27
7.12336e-27
7.12336e-27
7.12336e-27
7.12336e-27
3.66895e-26
3.66895e-26
3.66895e-26
3.66895e-26
1.51875e-25
1.51875e-25
1.51875e-25
1.51875e-25
5.23441e-25
5.23441e-25
5.23441e-25
5.23441e-25
1.56497e-24
1.56497e-24
1.56497e-24
1.56497e-24
3.83574e-24
3.83574e-24
3.83574e-24
3.83574e-24
6.87935e-24
6.87935e-24
6.87935e-24
6.87935e-24
7.00141e-24
7.00141e-24
7.00141e-24
7.00141e-24
1.49903e-24
1.49903e-24
1.49903e-24
1.49903e-24
1.48183e-24
1.48183e-24
1.48183e-24
1.48183e-24
3.02881e-25
3.02881e-25
3.02881e-25
3.02881e-25
2.82172e-25
2.82172e-25
2.82172e-25
2.82172e-25
2.02331e-26
2.02331e-26
2.02331e-26
2.02331e-26
4.32171e-29
4.32171e-29
4.32171e-29
4.32171e-29
8.73673e-32
8.73673e-32
8.73673e-32
8.73673e-32
6.45409e-38
6.45409e-38
6.45409e-38
6.45409e-38
6.50647e-38
6.50647e-38
6.50647e-38
6.50647e-38
6.29563e-38
6.29563e-38
6.29563e-38
6.29563e-38
5.8467e-38
5.8467e-38
5.8467e-38
5.8467e-38
5.21139e-38
5.21139e-38
5.21139e-38
5.21139e-38
4.45824e-38
4.45824e-38
4.45824e-38
4.45824e-38
3.66045e-38
3.66045e-38
3.66045e-38
3.66045e-38
2.88445e-38
2.88445e-38
2.88445e-38
2.88445e-38
2.18144e-38
2.18144e-38
2.18144e-38
2.18144e-38
1.58334e-38
1.58334e-38
1.58334e-38
1.58334e-38
1.10293e-38
1.10293e-38
1.10293e-38
1.10293e-38
7.3734e-39
7.3734e-39
7.3734e-39
7.3734e-39
4.73071e-39
4.73071e-39
4.73071e-39
4.73071e-39
2.91287e-39
2.91287e-39
2.91287e-39
2.91287e-39
1.72128e-39
1.72128e-39
1.72128e-39
1.72128e-39
9.76148e-40
9.76148e-40
9.76148e-40
9.76148e-40
5.31265e-40
5.31265e-40
5.31265e-40
5.31265e-40
2.77484e-40
2.77484e-40
2.77484e-40
2.77484e-40
1.39089e-40
1.39089e-40
1.39089e-40
1.39089e-40
6.69075e-41
6.69075e-41
6.69075e-41
6.69075e-41
3.08846e-41
3.08846e-41
3.08846e-41
3.08846e-41
1.36685e-41
1.36685e-41
1.36685e-41
1.36685e-41
5.75922e-42
5.75922e-42
5.75922e-42
5.75922e-42
2.20892e-42
2.20892e-42
2.20892e-42
2.20892e-42
6.10836e-43
6.10836e-43
6.10836e-43
6.10836e-43
2.15437e-76
2.15437e-76
2.15437e-76
2.15437e-76
3.98125e-75
3.98125e-75
3.98125e-75
3.98125e-75
3.71942e-74
3.71942e-74
3.71942e-74
3.71942e-74
3.38322e-73
3.38322e-73
3.38322e-73
3.38322e-73
2.99562e-72
2.99562e-72
2.99562e-72
2.99562e-72
2.58136e-71
2.58136e-71
2.58136e-71
2.58136e-71
2.16431e-70
2.16431e-70
2.16431e-70
2.16431e-70
1.76523e-69
1.76523e-69
1.76523e-69
1.76523e-69
1.40023e-68
1.40023e-68
1.40023e-68
1.40023e-68
1.07997e-67
1.07997e-67
1.07997e-67
1.07997e-67
8.09741e-67
8.09741e-67
8.09741e-67
8.09741e-67
5.9007e-66
5.9007e-66
5.9007e-66
5.9007e-66
4.17817e-65
4.17817e-65
4.17817e-65
4.17817e-65
2.87407e-64
2.87407e-64
2.87407e-64
2.87407e-64
1.92018e-63
1.92018e-63
1.92018e-63
1.92018e-63
1.24572e-62
1.24572e-62
1.24572e-62
1.24572e-62
7.8458e-62
7.8458e-62
7.8458e-62
7.8458e-62
4.79621e-61
4.79621e-61
4.79621e-61
4.79621e-61
2.84516e-60
2.84516e-60
2.84516e-60
2.84516e-60
1.63745e-59
1.63745e-59
1.63745e-59
1.63745e-59
9.1409e-59
9.1409e-59
9.1409e-59
9.1409e-59
4.94851e-58
4.94851e-58
4.94851e-58
4.94851e-58
2.59736e-57
2.59736e-57
2.59736e-57
2.59736e-57
1.32151e-56
1.32151e-56
1.32151e-56
1.32151e-56
6.51624e-56
6.51624e-56
6.51624e-56
6.51624e-56
3.11331e-55
3.11331e-55
3.11331e-55
3.11331e-55
1.44097e-54
1.44097e-54
1.44097e-54
1.44097e-54
6.45963e-54
6.45963e-54
6.45963e-54
6.45963e-54
2.80409e-53
2.80409e-53
2.80409e-53
2.80409e-53
1.17848e-52
1.17848e-52
1.17848e-52
1.17848e-52
4.79416e-52
4.79416e-52
4.79416e-52
4.79416e-52
1.88746e-51
1.88746e-51
1.88746e-51
1.88746e-51
7.19013e-51
7.19013e-51
7.19013e-51
7.19013e-51
2.64975e-50
2.64975e-50
2.64975e-50
2.64975e-50
9.44501e-50
9.44501e-50
9.44501e-50
9.44501e-50
3.25574e-49
3.25574e-49
3.25574e-49
3.25574e-49
1.0851e-48
1.0851e-48
1.0851e-48
1.0851e-48
3.4961e-48
3.4961e-48
3.4961e-48
3.4961e-48
1.08873e-47
1.08873e-47
1.08873e-47
1.08873e-47
3.27655e-47
3.27655e-47
3.27655e-47
3.27655e-47
9.52915e-47
9.52915e-47
9.52915e-47
9.52915e-47
2.6807e-46
2.6807e-46
2.6807e-46
2.6807e-46
7.37991e-46
7.37991e-46
7.37991e-46
7.37991e-46
2.24478e-45
2.24478e-45
2.24478e-45
2.24478e-45
1.47635e-44
1.47635e-44
1.47635e-44
1.47635e-44
2.94768e-43
2.94768e-43
2.94768e-43
2.94768e-43
7.82797e-42
7.82797e-42
7.82797e-42
7.82797e-42
2.07783e-40
2.07783e-40
2.07783e-40
2.07783e-40
5.33811e-39
5.33811e-39
5.33811e-39
5.33811e-39
1.32259e-37
1.32259e-37
1.32259e-37
1.32259e-37
3.15684e-36
3.15684e-36
3.15684e-36
3.15684e-36
7.05548e-35
7.05548e-35
7.05548e-35
7.05548e-35
1.42935e-33
1.42935e-33
1.42935e-33
1.42935e-33
2.60629e-32
2.60629e-32
2.60629e-32
2.60629e-32
4.24224e-31
4.24224e-31
4.24224e-31
4.24224e-31
6.10428e-30
6.10428e-30
6.10428e-30
6.10428e-30
7.6756e-29
7.6756e-29
7.6756e-29
7.6756e-29
8.31743e-28
8.31743e-28
8.31743e-28
8.31743e-28
7.6384e-27
7.6384e-27
7.6384e-27
7.6384e-27
5.82858e-26
5.82858e-26
5.82858e-26
5.82858e-26
3.61549e-25
3.61549e-25
3.61549e-25
3.61549e-25
1.7886e-24
1.7886e-24
1.7886e-24
1.7886e-24
7.0446e-24
7.0446e-24
7.0446e-24
7.0446e-24
2.29688e-23
2.29688e-23
2.29688e-23
2.29688e-23
6.54236e-23
6.54236e-23
6.54236e-23
6.54236e-23
1.53967e-22
1.53967e-22
1.53967e-22
1.53967e-22
2.6715e-22
2.6715e-22
2.6715e-22
2.6715e-22
2.64666e-22
2.64666e-22
2.64666e-22
2.64666e-22
5.5025e-23
5.5025e-23
5.5025e-23
5.5025e-23
5.31139e-23
5.31139e-23
5.31139e-23
5.31139e-23
1.06052e-23
1.06052e-23
1.06052e-23
1.06052e-23
9.68056e-24
9.68056e-24
9.68056e-24
9.68056e-24
6.97094e-25
6.97094e-25
6.97094e-25
6.97094e-25
1.56753e-27
1.56753e-27
1.56753e-27
1.56753e-27
3.3211e-30
3.3211e-30
3.3211e-30
3.3211e-30
7.04068e-37
7.04068e-37
7.04068e-37
7.04068e-37
7.03884e-37
7.03884e-37
7.03884e-37
7.03884e-37
6.75484e-37
6.75484e-37
6.75484e-37
6.75484e-37
6.22229e-37
6.22229e-37
6.22229e-37
6.22229e-37
5.50173e-37
5.50173e-37
5.50173e-37
5.50173e-37
4.66934e-37
4.66934e-37
4.66934e-37
4.66934e-37
3.80377e-37
3.80377e-37
3.80377e-37
3.80377e-37
2.97419e-37
2.97419e-37
2.97419e-37
2.97419e-37
2.2321e-37
2.2321e-37
2.2321e-37
2.2321e-37
1.60785e-37
1.60785e-37
1.60785e-37
1.60785e-37
1.11163e-37
1.11163e-37
1.11163e-37
1.11163e-37
7.37654e-38
7.37654e-38
7.37654e-38
7.37654e-38
4.69807e-38
4.69807e-38
4.69807e-38
4.69807e-38
2.87183e-38
2.87183e-38
2.87183e-38
2.87183e-38
1.68487e-38
1.68487e-38
1.68487e-38
1.68487e-38
9.48728e-39
9.48728e-39
9.48728e-39
9.48728e-39
5.1272e-39
5.1272e-39
5.1272e-39
5.1272e-39
2.65938e-39
2.65938e-39
2.65938e-39
2.65938e-39
1.32386e-39
1.32386e-39
1.32386e-39
1.32386e-39
6.32499e-40
6.32499e-40
6.32499e-40
6.32499e-40
2.9e-40
2.9e-40
2.9e-40
2.9e-40
1.27499e-40
1.27499e-40
1.27499e-40
1.27499e-40
5.33948e-41
5.33948e-41
5.33948e-41
5.33948e-41
2.03918e-41
2.03918e-41
2.03918e-41
2.03918e-41
5.63959e-42
5.63959e-42
5.63959e-42
5.63959e-42
2.4611e-75
2.4611e-75
2.4611e-75
2.4611e-75
4.56473e-74
4.56473e-74
4.56473e-74
4.56473e-74
4.29445e-73
4.29445e-73
4.29445e-73
4.29445e-73
3.93322e-72
3.93322e-72
3.93322e-72
3.93322e-72
3.50623e-71
3.50623e-71
3.50623e-71
3.50623e-71
3.04149e-70
3.04149e-70
3.04149e-70
3.04149e-70
2.56679e-69
2.56679e-69
2.56679e-69
2.56679e-69
2.10695e-68
2.10695e-68
2.10695e-68
2.10695e-68
1.68183e-67
1.68183e-67
1.68183e-67
1.68183e-67
1.30519e-66
1.30519e-66
1.30519e-66
1.30519e-66
9.84547e-66
9.84547e-66
9.84547e-66
9.84547e-66
7.21721e-65
7.21721e-65
7.21721e-65
7.21721e-65
5.14017e-64
5.14017e-64
5.14017e-64
5.14017e-64
3.556e-63
3.556e-63
3.556e-63
3.556e-63
2.38906e-62
2.38906e-62
2.38906e-62
2.38906e-62
1.5584e-61
1.5584e-61
1.5584e-61
1.5584e-61
9.86771e-61
9.86771e-61
9.86771e-61
9.86771e-61
6.06384e-60
6.06384e-60
6.06384e-60
6.06384e-60
3.61557e-59
3.61557e-59
3.61557e-59
3.61557e-59
2.09126e-58
2.09126e-58
2.09126e-58
2.09126e-58
1.17314e-57
1.17314e-57
1.17314e-57
1.17314e-57
6.38125e-57
6.38125e-57
6.38125e-57
6.38125e-57
3.36501e-56
3.36501e-56
3.36501e-56
3.36501e-56
1.71988e-55
1.71988e-55
1.71988e-55
1.71988e-55
8.51824e-55
8.51824e-55
8.51824e-55
8.51824e-55
4.08745e-54
4.08745e-54
4.08745e-54
4.08745e-54
1.89984e-53
1.89984e-53
1.89984e-53
1.89984e-53
8.55173e-53
8.55173e-53
8.55173e-53
8.55173e-53
3.72715e-52
3.72715e-52
3.72715e-52
3.72715e-52
1.57253e-51
1.57253e-51
1.57253e-51
1.57253e-51
6.42153e-51
6.42153e-51
6.42153e-51
6.42153e-51
2.53751e-50
2.53751e-50
2.53751e-50
2.53751e-50
9.70121e-50
9.70121e-50
9.70121e-50
9.70121e-50
3.58766e-49
3.58766e-49
3.58766e-49
3.58766e-49
1.28317e-48
1.28317e-48
1.28317e-48
1.28317e-48
4.43776e-48
4.43776e-48
4.43776e-48
4.43776e-48
1.4838e-47
1.4838e-47
1.4838e-47
1.4838e-47
4.7956e-47
4.7956e-47
4.7956e-47
4.7956e-47
1.49794e-46
1.49794e-46
1.49794e-46
1.49794e-46
4.52143e-46
4.52143e-46
4.52143e-46
4.52143e-46
1.31924e-45
1.31924e-45
1.31924e-45
1.31924e-45
3.73925e-45
3.73925e-45
3.73925e-45
3.73925e-45
1.08758e-44
1.08758e-44
1.08758e-44
1.08758e-44
4.95951e-44
4.95951e-44
4.95951e-44
4.95951e-44
7.36944e-43
7.36944e-43
7.36944e-43
7.36944e-43
1.89945e-41
1.89945e-41
1.89945e-41
1.89945e-41
5.11878e-40
5.11878e-40
5.11878e-40
5.11878e-40
1.34079e-38
1.34079e-38
1.34079e-38
1.34079e-38
3.38811e-37
3.38811e-37
3.38811e-37
3.38811e-37
8.24774e-36
8.24774e-36
8.24774e-36
8.24774e-36
1.93232e-34
1.93232e-34
1.93232e-34
1.93232e-34
4.23575e-33
4.23575e-33
4.23575e-33
4.23575e-33
8.41149e-32
8.41149e-32
8.41149e-32
8.41149e-32
1.5025e-30
1.5025e-30
1.5025e-30
1.5025e-30
2.39411e-29
2.39411e-29
2.39411e-29
2.39411e-29
3.36974e-28
3.36974e-28
3.36974e-28
3.36974e-28
4.14067e-27
4.14067e-27
4.14067e-27
4.14067e-27
4.3793e-26
4.3793e-26
4.3793e-26
4.3793e-26
3.91845e-25
3.91845e-25
3.91845e-25
3.91845e-25
2.90542e-24
2.90542e-24
2.90542e-24
2.90542e-24
1.74365e-23
1.74365e-23
1.74365e-23
1.74365e-23
8.28648e-23
8.28648e-23
8.28648e-23
8.28648e-23
3.10412e-22
3.10412e-22
3.10412e-22
3.10412e-22
9.5587e-22
9.5587e-22
9.5587e-22
9.5587e-22
2.59002e-21
2.59002e-21
2.59002e-21
2.59002e-21
5.84544e-21
5.84544e-21
5.84544e-21
5.84544e-21
9.80431e-21
9.80431e-21
9.80431e-21
9.80431e-21
9.45227e-21
9.45227e-21
9.45227e-21
9.45227e-21
1.91351e-21
1.91351e-21
1.91351e-21
1.91351e-21
1.80322e-21
1.80322e-21
1.80322e-21
1.80322e-21
3.52567e-22
3.52567e-22
3.52567e-22
3.52567e-22
3.15256e-22
3.15256e-22
3.15256e-22
3.15256e-22
2.28434e-23
2.28434e-23
2.28434e-23
2.28434e-23
5.42723e-26
5.42723e-26
5.42723e-26
5.42723e-26
1.20868e-28
1.20868e-28
1.20868e-28
1.20868e-28
7.45415e-36
7.45415e-36
7.45415e-36
7.45415e-36
7.39168e-36
7.39168e-36
7.39168e-36
7.39168e-36
7.03652e-36
7.03652e-36
7.03652e-36
7.03652e-36
6.43035e-36
6.43035e-36
6.43035e-36
6.43035e-36
5.64112e-36
5.64112e-36
5.64112e-36
5.64112e-36
4.75053e-36
4.75053e-36
4.75053e-36
4.75053e-36
3.84025e-36
3.84025e-36
3.84025e-36
3.84025e-36
2.97996e-36
2.97996e-36
2.97996e-36
2.97996e-36
2.21967e-36
2.21967e-36
2.21967e-36
2.21967e-36
1.58705e-36
1.58705e-36
1.58705e-36
1.58705e-36
1.0892e-36
1.0892e-36
1.0892e-36
1.0892e-36
7.17528e-37
7.17528e-37
7.17528e-37
7.17528e-37
4.53709e-37
4.53709e-37
4.53709e-37
4.53709e-37
2.75373e-37
2.75373e-37
2.75373e-37
2.75373e-37
1.60423e-37
1.60423e-37
1.60423e-37
1.60423e-37
8.97035e-38
8.97035e-38
8.97035e-38
8.97035e-38
4.81446e-38
4.81446e-38
4.81446e-38
4.81446e-38
2.48015e-38
2.48015e-38
2.48015e-38
2.48015e-38
1.22631e-38
1.22631e-38
1.22631e-38
1.22631e-38
5.81978e-39
5.81978e-39
5.81978e-39
5.81978e-39
2.65073e-39
2.65073e-39
2.65073e-39
2.65073e-39
1.15786e-39
1.15786e-39
1.15786e-39
1.15786e-39
4.81988e-40
4.81988e-40
4.81988e-40
4.81988e-40
1.83303e-40
1.83303e-40
1.83303e-40
1.83303e-40
5.07065e-41
5.07065e-41
5.07065e-41
5.07065e-41
2.69579e-74
2.69579e-74
2.69579e-74
2.69579e-74
5.01862e-73
5.01862e-73
5.01862e-73
5.01862e-73
4.75504e-72
4.75504e-72
4.75504e-72
4.75504e-72
4.3855e-71
4.3855e-71
4.3855e-71
4.3855e-71
3.93625e-70
3.93625e-70
3.93625e-70
3.93625e-70
3.43755e-69
3.43755e-69
3.43755e-69
3.43755e-69
2.92025e-68
2.92025e-68
2.92025e-68
2.92025e-68
2.41267e-67
2.41267e-67
2.41267e-67
2.41267e-67
1.93815e-66
1.93815e-66
1.93815e-66
1.93815e-66
1.51353e-65
1.51353e-65
1.51353e-65
1.51353e-65
1.14871e-64
1.14871e-64
1.14871e-64
1.14871e-64
8.47124e-64
8.47124e-64
8.47124e-64
8.47124e-64
6.06886e-63
6.06886e-63
6.06886e-63
6.06886e-63
4.22271e-62
4.22271e-62
4.22271e-62
4.22271e-62
2.85302e-61
2.85302e-61
2.85302e-61
2.85302e-61
1.87133e-60
1.87133e-60
1.87133e-60
1.87133e-60
1.19133e-59
1.19133e-59
1.19133e-59
1.19133e-59
7.35962e-59
7.35962e-59
7.35962e-59
7.35962e-59
4.41088e-58
4.41088e-58
4.41088e-58
4.41088e-58
2.56417e-57
2.56417e-57