# vtk DataFile Version 2.0
dg(0) output generated by Nextsim
ASCII
DATASET UNSTRUCTURED_GRID
FIELD FieldData 1
TIME 1 1 double
0
POINTS 16 DOUBLE
0	0	0
0.5	0	0
0.5	0.5	0
0	0.5	0
0.5	0	0
1	0	0
1	0.5	0
0.5	0.5	0
0	0.5	0
0.5	0.5	0
0.5	1	0
0	1	0
0.5	0.5	0
1	0.5	0
1	1	0
0.5	1	0
CELLS 4 20
4 0 1 2 3
4 4 5 6 7
4 8 9 10 11
4 12 13 14 15
CELL_TYPES 4
9 9 9 9 
POINT_DATA 16
SCALARS dg0 DOUBLE 
LOOKUP_TABLE default
3.0328e-07
3.0328e-07
3.0328e-07
3.0328e-07
2.6521e-05
2.6521e-05
2.6521e-05
2.6521e-05
2.31817e-09
2.31817e-09
2.31817e-09
2.31817e-09
0.00116347
0.00116347
0.00116347
0.00116347
