# vtk DataFile Version 2.0
dg(0) output generated by Nextsim
ASCII
DATASET UNSTRUCTURED_GRID
FIELD FieldData 1
TIME 1 1 double
0
POINTS 40000 DOUBLE
0	0	0
0.01	0	0
0.01	0.01	0
0	0.01	0
0.01	0	0
0.02	0	0
0.02	0.01	0
0.01	0.01	0
0.02	0	0
0.03	0	0
0.03	0.01	0
0.02	0.01	0
0.03	0	0
0.04	0	0
0.04	0.01	0
0.03	0.01	0
0.04	0	0
0.05	0	0
0.05	0.01	0
0.04	0.01	0
0.05	0	0
0.06	0	0
0.06	0.01	0
0.05	0.01	0
0.06	0	0
0.07	0	0
0.07	0.01	0
0.06	0.01	0
0.07	0	0
0.08	0	0
0.08	0.01	0
0.07	0.01	0
0.08	0	0
0.09	0	0
0.09	0.01	0
0.08	0.01	0
0.09	0	0
0.1	0	0
0.1	0.01	0
0.09	0.01	0
0.1	0	0
0.11	0	0
0.11	0.01	0
0.1	0.01	0
0.11	0	0
0.12	0	0
0.12	0.01	0
0.11	0.01	0
0.12	0	0
0.13	0	0
0.13	0.01	0
0.12	0.01	0
0.13	0	0
0.14	0	0
0.14	0.01	0
0.13	0.01	0
0.14	0	0
0.15	0	0
0.15	0.01	0
0.14	0.01	0
0.15	0	0
0.16	0	0
0.16	0.01	0
0.15	0.01	0
0.16	0	0
0.17	0	0
0.17	0.01	0
0.16	0.01	0
0.17	0	0
0.18	0	0
0.18	0.01	0
0.17	0.01	0
0.18	0	0
0.19	0	0
0.19	0.01	0
0.18	0.01	0
0.19	0	0
0.2	0	0
0.2	0.01	0
0.19	0.01	0
0.2	0	0
0.21	0	0
0.21	0.01	0
0.2	0.01	0
0.21	0	0
0.22	0	0
0.22	0.01	0
0.21	0.01	0
0.22	0	0
0.23	0	0
0.23	0.01	0
0.22	0.01	0
0.23	0	0
0.24	0	0
0.24	0.01	0
0.23	0.01	0
0.24	0	0
0.25	0	0
0.25	0.01	0
0.24	0.01	0
0.25	0	0
0.26	0	0
0.26	0.01	0
0.25	0.01	0
0.26	0	0
0.27	0	0
0.27	0.01	0
0.26	0.01	0
0.27	0	0
0.28	0	0
0.28	0.01	0
0.27	0.01	0
0.28	0	0
0.29	0	0
0.29	0.01	0
0.28	0.01	0
0.29	0	0
0.3	0	0
0.3	0.01	0
0.29	0.01	0
0.3	0	0
0.31	0	0
0.31	0.01	0
0.3	0.01	0
0.31	0	0
0.32	0	0
0.32	0.01	0
0.31	0.01	0
0.32	0	0
0.33	0	0
0.33	0.01	0
0.32	0.01	0
0.33	0	0
0.34	0	0
0.34	0.01	0
0.33	0.01	0
0.34	0	0
0.35	0	0
0.35	0.01	0
0.34	0.01	0
0.35	0	0
0.36	0	0
0.36	0.01	0
0.35	0.01	0
0.36	0	0
0.37	0	0
0.37	0.01	0
0.36	0.01	0
0.37	0	0
0.38	0	0
0.38	0.01	0
0.37	0.01	0
0.38	0	0
0.39	0	0
0.39	0.01	0
0.38	0.01	0
0.39	0	0
0.4	0	0
0.4	0.01	0
0.39	0.01	0
0.4	0	0
0.41	0	0
0.41	0.01	0
0.4	0.01	0
0.41	0	0
0.42	0	0
0.42	0.01	0
0.41	0.01	0
0.42	0	0
0.43	0	0
0.43	0.01	0
0.42	0.01	0
0.43	0	0
0.44	0	0
0.44	0.01	0
0.43	0.01	0
0.44	0	0
0.45	0	0
0.45	0.01	0
0.44	0.01	0
0.45	0	0
0.46	0	0
0.46	0.01	0
0.45	0.01	0
0.46	0	0
0.47	0	0
0.47	0.01	0
0.46	0.01	0
0.47	0	0
0.48	0	0
0.48	0.01	0
0.47	0.01	0
0.48	0	0
0.49	0	0
0.49	0.01	0
0.48	0.01	0
0.49	0	0
0.5	0	0
0.5	0.01	0
0.49	0.01	0
0.5	0	0
0.51	0	0
0.51	0.01	0
0.5	0.01	0
0.51	0	0
0.52	0	0
0.52	0.01	0
0.51	0.01	0
0.52	0	0
0.53	0	0
0.53	0.01	0
0.52	0.01	0
0.53	0	0
0.54	0	0
0.54	0.01	0
0.53	0.01	0
0.54	0	0
0.55	0	0
0.55	0.01	0
0.54	0.01	0
0.55	0	0
0.56	0	0
0.56	0.01	0
0.55	0.01	0
0.56	0	0
0.57	0	0
0.57	0.01	0
0.56	0.01	0
0.57	0	0
0.58	0	0
0.58	0.01	0
0.57	0.01	0
0.58	0	0
0.59	0	0
0.59	0.01	0
0.58	0.01	0
0.59	0	0
0.6	0	0
0.6	0.01	0
0.59	0.01	0
0.6	0	0
0.61	0	0
0.61	0.01	0
0.6	0.01	0
0.61	0	0
0.62	0	0
0.62	0.01	0
0.61	0.01	0
0.62	0	0
0.63	0	0
0.63	0.01	0
0.62	0.01	0
0.63	0	0
0.64	0	0
0.64	0.01	0
0.63	0.01	0
0.64	0	0
0.65	0	0
0.65	0.01	0
0.64	0.01	0
0.65	0	0
0.66	0	0
0.66	0.01	0
0.65	0.01	0
0.66	0	0
0.67	0	0
0.67	0.01	0
0.66	0.01	0
0.67	0	0
0.68	0	0
0.68	0.01	0
0.67	0.01	0
0.68	0	0
0.69	0	0
0.69	0.01	0
0.68	0.01	0
0.69	0	0
0.7	0	0
0.7	0.01	0
0.69	0.01	0
0.7	0	0
0.71	0	0
0.71	0.01	0
0.7	0.01	0
0.71	0	0
0.72	0	0
0.72	0.01	0
0.71	0.01	0
0.72	0	0
0.73	0	0
0.73	0.01	0
0.72	0.01	0
0.73	0	0
0.74	0	0
0.74	0.01	0
0.73	0.01	0
0.74	0	0
0.75	0	0
0.75	0.01	0
0.74	0.01	0
0.75	0	0
0.76	0	0
0.76	0.01	0
0.75	0.01	0
0.76	0	0
0.77	0	0
0.77	0.01	0
0.76	0.01	0
0.77	0	0
0.78	0	0
0.78	0.01	0
0.77	0.01	0
0.78	0	0
0.79	0	0
0.79	0.01	0
0.78	0.01	0
0.79	0	0
0.8	0	0
0.8	0.01	0
0.79	0.01	0
0.8	0	0
0.81	0	0
0.81	0.01	0
0.8	0.01	0
0.81	0	0
0.82	0	0
0.82	0.01	0
0.81	0.01	0
0.82	0	0
0.83	0	0
0.83	0.01	0
0.82	0.01	0
0.83	0	0
0.84	0	0
0.84	0.01	0
0.83	0.01	0
0.84	0	0
0.85	0	0
0.85	0.01	0
0.84	0.01	0
0.85	0	0
0.86	0	0
0.86	0.01	0
0.85	0.01	0
0.86	0	0
0.87	0	0
0.87	0.01	0
0.86	0.01	0
0.87	0	0
0.88	0	0
0.88	0.01	0
0.87	0.01	0
0.88	0	0
0.89	0	0
0.89	0.01	0
0.88	0.01	0
0.89	0	0
0.9	0	0
0.9	0.01	0
0.89	0.01	0
0.9	0	0
0.91	0	0
0.91	0.01	0
0.9	0.01	0
0.91	0	0
0.92	0	0
0.92	0.01	0
0.91	0.01	0
0.92	0	0
0.93	0	0
0.93	0.01	0
0.92	0.01	0
0.93	0	0
0.94	0	0
0.94	0.01	0
0.93	0.01	0
0.94	0	0
0.95	0	0
0.95	0.01	0
0.94	0.01	0
0.95	0	0
0.96	0	0
0.96	0.01	0
0.95	0.01	0
0.96	0	0
0.97	0	0
0.97	0.01	0
0.96	0.01	0
0.97	0	0
0.98	0	0
0.98	0.01	0
0.97	0.01	0
0.98	0	0
0.99	0	0
0.99	0.01	0
0.98	0.01	0
0.99	0	0
1	0	0
1	0.01	0
0.99	0.01	0
0	0.01	0
0.01	0.01	0
0.01	0.02	0
0	0.02	0
0.01	0.01	0
0.02	0.01	0
0.02	0.02	0
0.01	0.02	0
0.02	0.01	0
0.03	0.01	0
0.03	0.02	0
0.02	0.02	0
0.03	0.01	0
0.04	0.01	0
0.04	0.02	0
0.03	0.02	0
0.04	0.01	0
0.05	0.01	0
0.05	0.02	0
0.04	0.02	0
0.05	0.01	0
0.06	0.01	0
0.06	0.02	0
0.05	0.02	0
0.06	0.01	0
0.07	0.01	0
0.07	0.02	0
0.06	0.02	0
0.07	0.01	0
0.08	0.01	0
0.08	0.02	0
0.07	0.02	0
0.08	0.01	0
0.09	0.01	0
0.09	0.02	0
0.08	0.02	0
0.09	0.01	0
0.1	0.01	0
0.1	0.02	0
0.09	0.02	0
0.1	0.01	0
0.11	0.01	0
0.11	0.02	0
0.1	0.02	0
0.11	0.01	0
0.12	0.01	0
0.12	0.02	0
0.11	0.02	0
0.12	0.01	0
0.13	0.01	0
0.13	0.02	0
0.12	0.02	0
0.13	0.01	0
0.14	0.01	0
0.14	0.02	0
0.13	0.02	0
0.14	0.01	0
0.15	0.01	0
0.15	0.02	0
0.14	0.02	0
0.15	0.01	0
0.16	0.01	0
0.16	0.02	0
0.15	0.02	0
0.16	0.01	0
0.17	0.01	0
0.17	0.02	0
0.16	0.02	0
0.17	0.01	0
0.18	0.01	0
0.18	0.02	0
0.17	0.02	0
0.18	0.01	0
0.19	0.01	0
0.19	0.02	0
0.18	0.02	0
0.19	0.01	0
0.2	0.01	0
0.2	0.02	0
0.19	0.02	0
0.2	0.01	0
0.21	0.01	0
0.21	0.02	0
0.2	0.02	0
0.21	0.01	0
0.22	0.01	0
0.22	0.02	0
0.21	0.02	0
0.22	0.01	0
0.23	0.01	0
0.23	0.02	0
0.22	0.02	0
0.23	0.01	0
0.24	0.01	0
0.24	0.02	0
0.23	0.02	0
0.24	0.01	0
0.25	0.01	0
0.25	0.02	0
0.24	0.02	0
0.25	0.01	0
0.26	0.01	0
0.26	0.02	0
0.25	0.02	0
0.26	0.01	0
0.27	0.01	0
0.27	0.02	0
0.26	0.02	0
0.27	0.01	0
0.28	0.01	0
0.28	0.02	0
0.27	0.02	0
0.28	0.01	0
0.29	0.01	0
0.29	0.02	0
0.28	0.02	0
0.29	0.01	0
0.3	0.01	0
0.3	0.02	0
0.29	0.02	0
0.3	0.01	0
0.31	0.01	0
0.31	0.02	0
0.3	0.02	0
0.31	0.01	0
0.32	0.01	0
0.32	0.02	0
0.31	0.02	0
0.32	0.01	0
0.33	0.01	0
0.33	0.02	0
0.32	0.02	0
0.33	0.01	0
0.34	0.01	0
0.34	0.02	0
0.33	0.02	0
0.34	0.01	0
0.35	0.01	0
0.35	0.02	0
0.34	0.02	0
0.35	0.01	0
0.36	0.01	0
0.36	0.02	0
0.35	0.02	0
0.36	0.01	0
0.37	0.01	0
0.37	0.02	0
0.36	0.02	0
0.37	0.01	0
0.38	0.01	0
0.38	0.02	0
0.37	0.02	0
0.38	0.01	0
0.39	0.01	0
0.39	0.02	0
0.38	0.02	0
0.39	0.01	0
0.4	0.01	0
0.4	0.02	0
0.39	0.02	0
0.4	0.01	0
0.41	0.01	0
0.41	0.02	0
0.4	0.02	0
0.41	0.01	0
0.42	0.01	0
0.42	0.02	0
0.41	0.02	0
0.42	0.01	0
0.43	0.01	0
0.43	0.02	0
0.42	0.02	0
0.43	0.01	0
0.44	0.01	0
0.44	0.02	0
0.43	0.02	0
0.44	0.01	0
0.45	0.01	0
0.45	0.02	0
0.44	0.02	0
0.45	0.01	0
0.46	0.01	0
0.46	0.02	0
0.45	0.02	0
0.46	0.01	0
0.47	0.01	0
0.47	0.02	0
0.46	0.02	0
0.47	0.01	0
0.48	0.01	0
0.48	0.02	0
0.47	0.02	0
0.48	0.01	0
0.49	0.01	0
0.49	0.02	0
0.48	0.02	0
0.49	0.01	0
0.5	0.01	0
0.5	0.02	0
0.49	0.02	0
0.5	0.01	0
0.51	0.01	0
0.51	0.02	0
0.5	0.02	0
0.51	0.01	0
0.52	0.01	0
0.52	0.02	0
0.51	0.02	0
0.52	0.01	0
0.53	0.01	0
0.53	0.02	0
0.52	0.02	0
0.53	0.01	0
0.54	0.01	0
0.54	0.02	0
0.53	0.02	0
0.54	0.01	0
0.55	0.01	0
0.55	0.02	0
0.54	0.02	0
0.55	0.01	0
0.56	0.01	0
0.56	0.02	0
0.55	0.02	0
0.56	0.01	0
0.57	0.01	0
0.57	0.02	0
0.56	0.02	0
0.57	0.01	0
0.58	0.01	0
0.58	0.02	0
0.57	0.02	0
0.58	0.01	0
0.59	0.01	0
0.59	0.02	0
0.58	0.02	0
0.59	0.01	0
0.6	0.01	0
0.6	0.02	0
0.59	0.02	0
0.6	0.01	0
0.61	0.01	0
0.61	0.02	0
0.6	0.02	0
0.61	0.01	0
0.62	0.01	0
0.62	0.02	0
0.61	0.02	0
0.62	0.01	0
0.63	0.01	0
0.63	0.02	0
0.62	0.02	0
0.63	0.01	0
0.64	0.01	0
0.64	0.02	0
0.63	0.02	0
0.64	0.01	0
0.65	0.01	0
0.65	0.02	0
0.64	0.02	0
0.65	0.01	0
0.66	0.01	0
0.66	0.02	0
0.65	0.02	0
0.66	0.01	0
0.67	0.01	0
0.67	0.02	0
0.66	0.02	0
0.67	0.01	0
0.68	0.01	0
0.68	0.02	0
0.67	0.02	0
0.68	0.01	0
0.69	0.01	0
0.69	0.02	0
0.68	0.02	0
0.69	0.01	0
0.7	0.01	0
0.7	0.02	0
0.69	0.02	0
0.7	0.01	0
0.71	0.01	0
0.71	0.02	0
0.7	0.02	0
0.71	0.01	0
0.72	0.01	0
0.72	0.02	0
0.71	0.02	0
0.72	0.01	0
0.73	0.01	0
0.73	0.02	0
0.72	0.02	0
0.73	0.01	0
0.74	0.01	0
0.74	0.02	0
0.73	0.02	0
0.74	0.01	0
0.75	0.01	0
0.75	0.02	0
0.74	0.02	0
0.75	0.01	0
0.76	0.01	0
0.76	0.02	0
0.75	0.02	0
0.76	0.01	0
0.77	0.01	0
0.77	0.02	0
0.76	0.02	0
0.77	0.01	0
0.78	0.01	0
0.78	0.02	0
0.77	0.02	0
0.78	0.01	0
0.79	0.01	0
0.79	0.02	0
0.78	0.02	0
0.79	0.01	0
0.8	0.01	0
0.8	0.02	0
0.79	0.02	0
0.8	0.01	0
0.81	0.01	0
0.81	0.02	0
0.8	0.02	0
0.81	0.01	0
0.82	0.01	0
0.82	0.02	0
0.81	0.02	0
0.82	0.01	0
0.83	0.01	0
0.83	0.02	0
0.82	0.02	0
0.83	0.01	0
0.84	0.01	0
0.84	0.02	0
0.83	0.02	0
0.84	0.01	0
0.85	0.01	0
0.85	0.02	0
0.84	0.02	0
0.85	0.01	0
0.86	0.01	0
0.86	0.02	0
0.85	0.02	0
0.86	0.01	0
0.87	0.01	0
0.87	0.02	0
0.86	0.02	0
0.87	0.01	0
0.88	0.01	0
0.88	0.02	0
0.87	0.02	0
0.88	0.01	0
0.89	0.01	0
0.89	0.02	0
0.88	0.02	0
0.89	0.01	0
0.9	0.01	0
0.9	0.02	0
0.89	0.02	0
0.9	0.01	0
0.91	0.01	0
0.91	0.02	0
0.9	0.02	0
0.91	0.01	0
0.92	0.01	0
0.92	0.02	0
0.91	0.02	0
0.92	0.01	0
0.93	0.01	0
0.93	0.02	0
0.92	0.02	0
0.93	0.01	0
0.94	0.01	0
0.94	0.02	0
0.93	0.02	0
0.94	0.01	0
0.95	0.01	0
0.95	0.02	0
0.94	0.02	0
0.95	0.01	0
0.96	0.01	0
0.96	0.02	0
0.95	0.02	0
0.96	0.01	0
0.97	0.01	0
0.97	0.02	0
0.96	0.02	0
0.97	0.01	0
0.98	0.01	0
0.98	0.02	0
0.97	0.02	0
0.98	0.01	0
0.99	0.01	0
0.99	0.02	0
0.98	0.02	0
0.99	0.01	0
1	0.01	0
1	0.02	0
0.99	0.02	0
0	0.02	0
0.01	0.02	0
0.01	0.03	0
0	0.03	0
0.01	0.02	0
0.02	0.02	0
0.02	0.03	0
0.01	0.03	0
0.02	0.02	0
0.03	0.02	0
0.03	0.03	0
0.02	0.03	0
0.03	0.02	0
0.04	0.02	0
0.04	0.03	0
0.03	0.03	0
0.04	0.02	0
0.05	0.02	0
0.05	0.03	0
0.04	0.03	0
0.05	0.02	0
0.06	0.02	0
0.06	0.03	0
0.05	0.03	0
0.06	0.02	0
0.07	0.02	0
0.07	0.03	0
0.06	0.03	0
0.07	0.02	0
0.08	0.02	0
0.08	0.03	0
0.07	0.03	0
0.08	0.02	0
0.09	0.02	0
0.09	0.03	0
0.08	0.03	0
0.09	0.02	0
0.1	0.02	0
0.1	0.03	0
0.09	0.03	0
0.1	0.02	0
0.11	0.02	0
0.11	0.03	0
0.1	0.03	0
0.11	0.02	0
0.12	0.02	0
0.12	0.03	0
0.11	0.03	0
0.12	0.02	0
0.13	0.02	0
0.13	0.03	0
0.12	0.03	0
0.13	0.02	0
0.14	0.02	0
0.14	0.03	0
0.13	0.03	0
0.14	0.02	0
0.15	0.02	0
0.15	0.03	0
0.14	0.03	0
0.15	0.02	0
0.16	0.02	0
0.16	0.03	0
0.15	0.03	0
0.16	0.02	0
0.17	0.02	0
0.17	0.03	0
0.16	0.03	0
0.17	0.02	0
0.18	0.02	0
0.18	0.03	0
0.17	0.03	0
0.18	0.02	0
0.19	0.02	0
0.19	0.03	0
0.18	0.03	0
0.19	0.02	0
0.2	0.02	0
0.2	0.03	0
[...]
POINT_DATA 40000
SCALARS dg0 DOUBLE 
LOOKUP_TABLE default
2.58918e-82
2.58918e-82
2.58918e-82
2.58918e-82
5.5439e-81
5.5439e-81
5.5439e-81
5.5439e-81
6.74715e-80
6.74715e-80
6.74715e-80
6.74715e-80
7.94629e-79
7.94629e-79
7.94629e-79
7.94629e-79
9.05471e-78
9.05471e-78
9.05471e-78
9.05471e-78
9.98108e-77
9.98108e-77
9.98108e-77
9.98108e-77
1.06415e-75
1.06415e-75
1.06415e-75
1.06415e-75
1.09717e-74
1.09717e-74
1.09717e-74
1.09717e-74
1.09377e-73
1.09377e-73
1.09377e-73
1.09377e-73
1.05411e-72
1.05411e-72
1.05411e-72
1.05411e-72
9.81935e-72
9.81935e-72
9.81935e-72
9.81935e-72
8.83993e-71
8.83993e-71
8.83993e-71
8.83993e-71
7.68983e-70
7.68983e-70
7.68983e-70
7.68983e-70
6.46276e-69
6.46276e-69
6.46276e-69
6.46276e-69
5.24671e-68
5.24671e-68
5.24671e-68
5.24671e-68
4.11395e-67
4.11395e-67
4.11395e-67
4.11395e-67
3.11507e-66
3.11507e-66
3.11507e-66
3.11507e-66
2.27747e-65
2.27747e-65
2.27747e-65
2.27747e-65
1.6075e-64
1.6075e-64
1.6075e-64
1.6075e-64
1.09521e-63
1.09521e-63
1.09521e-63
1.09521e-63
7.20178e-63
7.20178e-63
7.20178e-63
7.20178e-63
4.56997e-62
4.56997e-62
4.56997e-62
4.56997e-62
2.79809e-61
2.79809e-61
2.79809e-61
2.79809e-61
1.65284e-60
1.65284e-60
1.65284e-60
1.65284e-60
9.41804e-60
9.41804e-60
9.41804e-60
9.41804e-60
5.17609e-59
5.17609e-59
5.17609e-59
5.17609e-59
2.74346e-58
2.74346e-58
2.74346e-58
2.74346e-58
1.40217e-57
1.40217e-57
1.40217e-57
1.40217e-57
6.9097e-57
6.9097e-57
6.9097e-57
6.9097e-57
3.28263e-56
3.28263e-56
3.28263e-56
3.28263e-56
1.50329e-55
1.50329e-55
1.50329e-55
1.50329e-55
6.63551e-55
6.63551e-55
6.63551e-55
6.63551e-55
2.82274e-54
2.82274e-54
2.82274e-54
2.82274e-54
1.15715e-53
1.15715e-53
1.15715e-53
1.15715e-53
4.57072e-53
4.57072e-53
4.57072e-53
4.57072e-53
1.73947e-52
1.73947e-52
1.73947e-52
1.73947e-52
6.37739e-52
6.37739e-52
6.37739e-52
6.37739e-52
2.25229e-51
2.25229e-51
2.25229e-51
2.25229e-51
7.66168e-51
7.66168e-51
7.66168e-51
7.66168e-51
2.51017e-50
2.51017e-50
2.51017e-50
2.51017e-50
7.91998e-50
7.91998e-50
7.91998e-50
7.91998e-50
2.40632e-49
2.40632e-49
2.40632e-49
2.40632e-49
7.03976e-49
7.03976e-49
7.03976e-49
7.03976e-49
1.98291e-48
1.98291e-48
1.98291e-48
1.98291e-48
5.37721e-48
5.37721e-48
5.37721e-48
5.37721e-48
1.40379e-47
1.40379e-47
1.40379e-47
1.40379e-47
3.52827e-47
3.52827e-47
3.52827e-47
3.52827e-47
8.54185e-47
8.54185e-47
8.54185e-47
8.54185e-47
1.99606e-46
1.99606e-46
1.99606e-46
1.99606e-46
4.53204e-46
4.53204e-46
4.53204e-46
4.53204e-46
1.0157e-45
1.0157e-45
1.0157e-45
1.0157e-45
2.24697e-45
2.24697e-45
2.24697e-45
2.24697e-45
4.8327e-45
4.8327e-45
4.8327e-45
4.8327e-45
1.00909e-44
1.00909e-44
1.00909e-44
1.00909e-44
2.04272e-44
2.04272e-44
2.04272e-44
2.04272e-44
4.0041e-44
4.0041e-44
4.0041e-44
4.0041e-44
7.61709e-44
7.61709e-44
7.61709e-44
7.61709e-44
1.53456e-43
1.53456e-43
1.53456e-43
1.53456e-43
8.28271e-43
8.28271e-43
8.28271e-43
8.28271e-43
1.84559e-41
1.84559e-41
1.84559e-41
1.84559e-41
4.11374e-40
4.11374e-40
4.11374e-40
4.11374e-40
6.36517e-39
6.36517e-39
6.36517e-39
6.36517e-39
5.84798e-38
5.84798e-38
5.84798e-38
5.84798e-38
2.57309e-37
2.57309e-37
2.57309e-37
2.57309e-37
1.02134e-36
1.02134e-36
1.02134e-36
1.02134e-36
3.65895e-36
3.65895e-36
3.65895e-36
3.65895e-36
1.12449e-35
1.12449e-35
1.12449e-35
1.12449e-35
2.30437e-35
2.30437e-35
2.30437e-35
2.30437e-35
6.75154e-37
6.75154e-37
6.75154e-37
6.75154e-37
1.33079e-36
1.33079e-36
1.33079e-36
1.33079e-36
3.64296e-38
3.64296e-38
3.64296e-38
3.64296e-38
6.96967e-38
6.96967e-38
6.96967e-38
6.96967e-38
1.25222e-39
1.25222e-39
1.25222e-39
1.25222e-39
1.2992e-41
1.2992e-41
1.2992e-41
1.2992e-41
1.22254e-41
1.22254e-41
1.22254e-41
1.22254e-41
1.11602e-41
1.11602e-41
1.11602e-41
1.11602e-41
9.78876e-42
9.78876e-42
9.78876e-42
9.78876e-42
8.24933e-42
8.24933e-42
8.24933e-42
8.24933e-42
6.67929e-42
6.67929e-42
6.67929e-42
6.67929e-42
5.1958e-42
5.1958e-42
5.1958e-42
5.1958e-42
3.88306e-42
3.88306e-42
3.88306e-42
3.88306e-42
2.78796e-42
2.78796e-42
2.78796e-42
2.78796e-42
1.92301e-42
1.92301e-42
1.92301e-42
1.92301e-42
1.27424e-42
1.27424e-42
1.27424e-42
1.27424e-42
8.11128e-43
8.11128e-43
8.11128e-43
8.11128e-43
4.96008e-43
4.96008e-43
4.96008e-43
4.96008e-43
2.91369e-43
2.91369e-43
2.91369e-43
2.91369e-43
1.64417e-43
1.64417e-43
1.64417e-43
1.64417e-43
8.91246e-44
8.91246e-44
8.91246e-44
8.91246e-44
4.64074e-44
4.64074e-44
4.64074e-44
4.64074e-44
2.3212e-44
2.3212e-44
2.3212e-44
2.3212e-44
1.11524e-44
1.11524e-44
1.11524e-44
1.11524e-44
5.14701e-45
5.14701e-45
5.14701e-45
5.14701e-45
2.28173e-45
2.28173e-45
2.28173e-45
2.28173e-45
9.71618e-46
9.71618e-46
9.71618e-46
9.71618e-46
3.97414e-46
3.97414e-46
3.97414e-46
3.97414e-46
1.56134e-46
1.56134e-46
1.56134e-46
1.56134e-46
5.88942e-47
5.88942e-47
5.88942e-47
5.88942e-47
2.11532e-47
2.11532e-47
2.11532e-47
2.11532e-47
6.44591e-48
6.44591e-48
6.44591e-48
6.44591e-48
3.7714e-81
3.7714e-81
3.7714e-81
3.7714e-81
8.08994e-80
8.08994e-80
8.08994e-80
8.08994e-80
9.8763e-79
9.8763e-79
9.8763e-79
9.8763e-79
1.16666e-77
1.16666e-77
1.16666e-77
1.16666e-77
1.33328e-76
1.33328e-76
1.33328e-76
1.33328e-76
1.47385e-75
1.47385e-75
1.47385e-75
1.47385e-75
1.57568e-74
1.57568e-74
1.57568e-74
1.57568e-74
1.62891e-73
1.62891e-73
1.62891e-73
1.62891e-73
1.62804e-72
1.62804e-72
1.62804e-72
1.62804e-72
1.57291e-71
1.57291e-71
1.57291e-71
1.57291e-71
1.46875e-70
1.46875e-70
1.46875e-70
1.46875e-70
1.32533e-69
1.32533e-69
1.32533e-69
1.32533e-69
1.15549e-68
1.15549e-68
1.15549e-68
1.15549e-68
9.7321e-68
9.7321e-68
9.7321e-68
9.7321e-68
7.91739e-67
7.91739e-67
7.91739e-67
7.91739e-67
6.22051e-66
6.22051e-66
6.22051e-66
6.22051e-66
4.71928e-65
4.71928e-65
4.71928e-65
4.71928e-65
3.45675e-64
3.45675e-64
3.45675e-64
3.45675e-64
2.44422e-63
2.44422e-63
2.44422e-63
2.44422e-63
1.66815e-62
1.66815e-62
1.66815e-62
1.66815e-62
1.09872e-61
1.09872e-61
1.09872e-61
1.09872e-61
6.98307e-61
6.98307e-61
6.98307e-61
6.98307e-61
4.28203e-60
4.28203e-60
4.28203e-60
4.28203e-60
2.53305e-59
2.53305e-59
2.53305e-59
2.53305e-59
1.44535e-58
1.44535e-58
1.44535e-58
1.44535e-58
7.954e-58
7.954e-58
7.954e-58
7.954e-58
4.22112e-57
4.22112e-57
4.22112e-57
4.22112e-57
2.15997e-56
2.15997e-56
2.15997e-56
2.15997e-56
1.06561e-55
1.06561e-55
1.06561e-55
1.06561e-55
5.06791e-55
5.06791e-55
5.06791e-55
5.06791e-55
2.32324e-54
2.32324e-54
2.32324e-54
2.32324e-54
1.02647e-53
1.02647e-53
1.02647e-53
1.02647e-53
4.37058e-53
4.37058e-53
4.37058e-53
4.37058e-53
1.79321e-52
1.79321e-52
1.79321e-52
1.79321e-52
7.08893e-52
7.08893e-52
7.08893e-52
7.08893e-52
2.69988e-51
2.69988e-51
2.69988e-51
2.69988e-51
9.90564e-51
9.90564e-51
9.90564e-51
9.90564e-51
3.50071e-50
3.50071e-50
3.50071e-50
3.50071e-50
1.19159e-49
1.19159e-49
1.19159e-49
1.19159e-49
3.90624e-49
3.90624e-49
3.90624e-49
3.90624e-49
1.23315e-48
1.23315e-48
1.23315e-48
1.23315e-48
3.74855e-48
3.74855e-48
3.74855e-48
3.74855e-48
1.09715e-47
1.09715e-47
1.09715e-47
1.09715e-47
3.09168e-47
3.09168e-47
3.09168e-47
3.09168e-47
8.38728e-47
8.38728e-47
8.38728e-47
8.38728e-47
2.19049e-46
2.19049e-46
2.19049e-46
2.19049e-46
5.50884e-46
5.50884e-46
5.50884e-46
5.50884e-46
1.33588e-45
1.33588e-45
1.33588e-45
1.33588e-45
3.14023e-45
3.14023e-45
3.14023e-45
3.14023e-45
7.27063e-45
7.27063e-45
7.27063e-45
7.27063e-45
1.71409e-44
1.71409e-44
1.71409e-44
1.71409e-44
4.04153e-44
4.04153e-44
4.04153e-44
4.04153e-44
9.16338e-44
9.16338e-44
9.16338e-44
9.16338e-44
1.99774e-43
1.99774e-43
1.99774e-43
1.99774e-43
4.18787e-43
4.18787e-43
4.18787e-43
4.18787e-43
8.45499e-43
8.45499e-43
8.45499e-43
8.45499e-43
1.72386e-42
1.72386e-42
1.72386e-42
1.72386e-42
7.24195e-42
7.24195e-42
7.24195e-42
7.24195e-42
1.64015e-40
1.64015e-40
1.64015e-40
1.64015e-40
4.64497e-39
4.64497e-39
4.64497e-39
4.64497e-39
9.99976e-38
9.99976e-38
9.99976e-38
9.99976e-38
1.47062e-36
1.47062e-36
1.47062e-36
1.47062e-36
1.28092e-35
1.28092e-35
1.28092e-35
1.28092e-35
5.25321e-35
5.25321e-35
5.25321e-35
5.25321e-35
1.95277e-34
1.95277e-34
1.95277e-34
1.95277e-34
6.58197e-34
6.58197e-34
6.58197e-34
6.58197e-34
1.91316e-33
1.91316e-33
1.91316e-33
1.91316e-33
3.73191e-33
3.73191e-33
3.73191e-33
3.73191e-33
1.11624e-34
1.11624e-34
1.11624e-34
1.11624e-34
2.10164e-34
2.10164e-34
2.10164e-34
2.10164e-34
5.91543e-36
5.91543e-36
5.91543e-36
5.91543e-36
1.08411e-35
1.08411e-35
1.08411e-35
1.08411e-35
1.99948e-37
1.99948e-37
1.99948e-37
1.99948e-37
3.1419e-40
3.1419e-40
3.1419e-40
3.1419e-40
2.76543e-40
2.76543e-40
2.76543e-40
2.76543e-40
2.51881e-40
2.51881e-40
2.51881e-40
2.51881e-40
2.20423e-40
2.20423e-40
2.20423e-40
2.20423e-40
1.85328e-40
1.85328e-40
1.85328e-40
1.85328e-40
1.49704e-40
1.49704e-40
1.49704e-40
1.49704e-40
1.1618e-40
1.1618e-40
1.1618e-40
1.1618e-40
8.66218e-41
8.66218e-41
8.66218e-41
8.66218e-41
6.20458e-41
6.20458e-41
6.20458e-41
6.20458e-41
4.26954e-41
4.26954e-41
4.26954e-41
4.26954e-41
2.82246e-41
2.82246e-41
2.82246e-41
2.82246e-41
1.79245e-41
1.79245e-41
1.79245e-41
1.79245e-41
1.09353e-41
1.09353e-41
1.09353e-41
1.09353e-41
6.40882e-42
6.40882e-42
6.40882e-42
6.40882e-42
3.60812e-42
3.60812e-42
3.60812e-42
3.60812e-42
1.95135e-42
1.95135e-42
1.95135e-42
1.95135e-42
1.01376e-42
1.01376e-42
1.01376e-42
1.01376e-42
5.05918e-43
5.05918e-43
5.05918e-43
5.05918e-43
2.42529e-43
2.42529e-43
2.42529e-43
2.42529e-43
1.11682e-43
1.11682e-43
1.11682e-43
1.11682e-43
4.94007e-44
4.94007e-44
4.94007e-44
4.94007e-44
2.099e-44
2.099e-44
2.099e-44
2.099e-44
8.56678e-45
8.56678e-45
8.56678e-45
8.56678e-45
3.35844e-45
3.35844e-45
3.35844e-45
3.35844e-45
1.26413e-45
1.26413e-45
1.26413e-45
1.26413e-45
4.53176e-46
4.53176e-46
4.53176e-46
4.53176e-46
1.38019e-46
1.38019e-46
1.38019e-46
1.38019e-46
5.12932e-80
5.12932e-80
5.12932e-80
5.12932e-80
1.10268e-78
1.10268e-78
1.10268e-78
1.10268e-78
1.35112e-77
1.35112e-77
1.35112e-77
1.35112e-77
1.60176e-76
1.60176e-76
1.60176e-76
1.60176e-76
1.83693e-75
1.83693e-75
1.83693e-75
1.83693e-75
2.03753e-74
2.03753e-74
2.03753e-74
2.03753e-74
2.18556e-73
2.18556e-73
2.18556e-73
2.18556e-73
2.26672e-72
2.26672e-72
2.26672e-72
2.26672e-72
2.27267e-71
2.27267e-71
2.27267e-71
2.27267e-71
2.20247e-70
2.20247e-70
2.20247e-70
2.20247e-70
2.06276e-69
2.06276e-69
2.06276e-69
2.06276e-69
1.86676e-68
1.86676e-68
1.86676e-68
1.86676e-68
1.63214e-67
1.63214e-67
1.63214e-67
1.63214e-67
1.37846e-66
1.37846e-66
1.37846e-66
1.37846e-66
1.12442e-65
1.12442e-65
1.12442e-65
1.12442e-65
8.85723e-65
8.85723e-65
8.85723e-65
8.85723e-65
6.73661e-64
6.73661e-64
6.73661e-64
6.73661e-64
4.94646e-63
4.94646e-63
4.94646e-63
4.94646e-63
3.50588e-62
3.50588e-62
3.50588e-62
3.50588e-62
2.39823e-61
2.39823e-61
2.39823e-61
2.39823e-61
1.58312e-60
1.58312e-60
1.58312e-60
1.58312e-60
1.00835e-59
1.00835e-59
1.00835e-59
1.00835e-59
6.19617e-59
6.19617e-59
6.19617e-59
6.19617e-59
3.67281e-58
3.67281e-58
3.67281e-58
3.67281e-58
2.09982e-57
2.09982e-57
2.09982e-57
2.09982e-57
1.15776e-56
1.15776e-56
1.15776e-56
1.15776e-56
6.15547e-56
6.15547e-56
6.15547e-56
6.15547e-56
3.15541e-55
3.15541e-55
3.15541e-55
3.15541e-55
1.55939e-54
1.55939e-54
1.55939e-54
1.55939e-54
7.42863e-54
7.42863e-54
7.42863e-54
7.42863e-54
3.41093e-53
3.41093e-53
3.41093e-53
3.41093e-53
1.50939e-52
1.50939e-52
1.50939e-52
1.50939e-52
6.43647e-52
6.43647e-52
6.43647e-52
6.43647e-52
2.64467e-51
2.64467e-51
2.64467e-51
2.64467e-51
1.04696e-50
1.04696e-50
1.04696e-50
1.04696e-50
3.99285e-50
3.99285e-50
3.99285e-50
3.99285e-50
1.46686e-49
1.46686e-49
1.46686e-49
1.46686e-49
5.19053e-49
5.19053e-49
5.19053e-49
5.19053e-49
1.76894e-48
1.76894e-48
1.76894e-48
1.76894e-48
5.80571e-48
5.80571e-48
5.80571e-48
5.80571e-48
1.83487e-47
1.83487e-47
1.83487e-47
1.83487e-47
5.58376e-47
5.58376e-47
5.58376e-47
5.58376e-47
1.63602e-46
1.63602e-46
1.63602e-46
1.63602e-46
4.61487e-46
4.61487e-46
4.61487e-46
4.61487e-46
1.25317e-45
1.25317e-45
1.25317e-45
1.25317e-45
3.27594e-45
3.27594e-45
3.27594e-45
3.27594e-45
8.24571e-45
8.24571e-45
8.24571e-45
8.24571e-45
2.00089e-44
2.00089e-44
2.00089e-44
2.00089e-44
4.70399e-44
4.70399e-44
4.70399e-44
4.70399e-44
1.08777e-43
1.08777e-43
1.08777e-43
1.08777e-43
2.55542e-43
2.55542e-43
2.55542e-43
2.55542e-43
5.99609e-43
5.99609e-43
5.99609e-43
5.99609e-43
1.35295e-42
1.35295e-42
1.35295e-42
1.35295e-42
2.93555e-42
2.93555e-42
2.93555e-42
2.93555e-42
6.13076e-42
6.13076e-42
6.13076e-42
6.13076e-42
1.27285e-41
1.27285e-41
1.27285e-41
1.27285e-41
4.78929e-41
4.78929e-41
4.78929e-41
4.78929e-41
1.1199e-39
1.1199e-39
1.1199e-39
1.1199e-39
3.83557e-38
3.83557e-38
3.83557e-38
3.83557e-38
1.05682e-36
1.05682e-36
1.05682e-36
1.05682e-36
2.15808e-35
2.15808e-35
2.15808e-35
2.15808e-35
3.01145e-34
3.01145e-34
3.01145e-34
3.01145e-34
2.48472e-33
2.48472e-33
2.48472e-33
2.48472e-33
9.46951e-33
9.46951e-33
9.46951e-33
9.46951e-33
3.28688e-32
3.28688e-32
3.28688e-32
3.28688e-32
1.03937e-31
1.03937e-31
1.03937e-31
1.03937e-31
2.84999e-31
2.84999e-31
2.84999e-31
2.84999e-31
5.28118e-31
5.28118e-31
5.28118e-31
5.28118e-31
1.61371e-32
1.61371e-32
1.61371e-32
1.61371e-32
2.89693e-32
2.89693e-32
2.89693e-32
2.89693e-32
8.39098e-34
8.39098e-34
8.39098e-34
8.39098e-34
1.47055e-33
1.47055e-33
1.47055e-33
1.47055e-33
2.80897e-35
2.80897e-35
2.80897e-35
2.80897e-35
7.4923e-39
7.4923e-39
7.4923e-39
7.4923e-39
3.69704e-39
3.69704e-39
3.69704e-39
3.69704e-39
3.35293e-39
3.35293e-39
3.35293e-39
3.35293e-39
2.92198e-39
2.92198e-39
2.92198e-39
2.92198e-39
2.4466e-39
2.4466e-39
2.4466e-39
2.4466e-39
1.96821e-39
1.96821e-39
1.96821e-39
1.96821e-39
1.52123e-39
1.52123e-39
1.52123e-39
1.52123e-39
1.12961e-39
1.12961e-39
1.12961e-39
1.12961e-39
8.05873e-40
8.05873e-40
8.05873e-40
8.05873e-40
5.5233e-40
5.5233e-40
5.5233e-40
5.5233e-40
3.63681e-40
3.63681e-40
3.63681e-40
3.63681e-40
2.30052e-40
2.30052e-40
2.30052e-40
2.30052e-40
1.39801e-40
1.39801e-40
1.39801e-40
1.39801e-40
8.16145e-41
8.16145e-41
8.16145e-41
8.16145e-41
4.57712e-41
4.57712e-41
4.57712e-41
4.57712e-41
2.46593e-41
2.46593e-41
2.46593e-41
2.46593e-41
1.27623e-41
1.27623e-41
1.27623e-41
1.27623e-41
6.34496e-42
6.34496e-42
6.34496e-42
6.34496e-42
3.03027e-42
3.03027e-42
3.03027e-42
3.03027e-42
1.39021e-42
1.39021e-42
1.39021e-42
1.39021e-42
6.12663e-43
6.12663e-43
6.12663e-43
6.12663e-43
2.59361e-43
2.59361e-43
2.59361e-43
2.59361e-43
1.05468e-43
1.05468e-43
1.05468e-43
1.05468e-43
4.11972e-44
4.11972e-44
4.11972e-44
4.11972e-44
1.54514e-44
1.54514e-44
1.54514e-44
1.54514e-44
5.5212e-45
5.5212e-45
5.5212e-45
5.5212e-45
1.67975e-45
1.67975e-45
1.67975e-45
1.67975e-45
6.69656e-79
6.69656e-79
6.69656e-79
6.69656e-79
1.44279e-77
1.44279e-77
1.44279e-77
1.44279e-77
1.77443e-76
1.77443e-76
1.77443e-76
1.77443e-76
2.11124e-75
2.11124e-75
2.11124e-75
2.11124e-75
2.42979e-74
2.42979e-74
2.42979e-74
2.42979e-74
2.70446e-73
2.70446e-73
2.70446e-73
2.70446e-73
2.91071e-72
2.91071e-72
2.91071e-72
2.91071e-72
3.02869e-71
3.02869e-71
3.02869e-71
3.02869e-71
3.04634e-70
3.04634e-70
3.04634e-70
3.04634e-70
2.96142e-69
2.96142e-69
2.96142e-69
2.96142e-69
2.78197e-68
2.78197e-68
2.78197e-68
2.78197e-68
2.52503e-67
2.52503e-67
2.52503e-67
2.52503e-67
2.214e-66
2.214e-66
2.214e-66
2.214e-66
1.87507e-65
1.87507e-65
1.87507e-65
1.87507e-65
1.53364e-64
1.53364e-64
1.53364e-64
1.53364e-64
1.21125e-63
1.21125e-63
1.21125e-63
1.21125e-63
9.23591e-63
9.23591e-63
9.23591e-63
9.23591e-63
6.79837e-62
6.79837e-62
6.79837e-62
6.79837e-62
4.83e-61
4.83e-61
4.83e-61
4.83e-61
3.31168e-60
3.31168e-60
3.31168e-60
3.31168e-60
2.19103e-59
2.19103e-59
2.19103e-59
2.19103e-59
1.3986e-58
1.3986e-58
1.3986e-58
1.3986e-58
8.61239e-58
8.61239e-58
8.61239e-58
8.61239e-58
5.1155e-57
5.1155e-57
5.1155e-57
5.1155e-57
2.93043e-56
2.93043e-56
2.93043e-56
2.93043e-56
1.61883e-55
1.61883e-55
1.61883e-55
1.61883e-55
8.62283e-55
8.62283e-55
8.62283e-55
8.62283e-55
4.42816e-54
4.42816e-54
4.42816e-54
4.42816e-54
2.19218e-53
2.19218e-53
2.19218e-53
2.19218e-53
1.04607e-52
1.04607e-52
1.04607e-52
1.04607e-52
4.81092e-52
4.81092e-52
4.81092e-52
4.81092e-52
2.13225e-51
2.13225e-51
2.13225e-51
2.13225e-51
9.10631e-51
9.10631e-51
9.10631e-51
9.10631e-51
3.74716e-50
3.74716e-50
3.74716e-50
3.74716e-50
1.4855e-49
1.4855e-49
1.4855e-49
1.4855e-49
5.67308e-49
5.67308e-49
5.67308e-49
5.67308e-49
2.08688e-48
2.08688e-48
2.08688e-48
2.08688e-48
7.39386e-48
7.39386e-48
7.39386e-48
7.39386e-48
2.52292e-47
2.52292e-47
2.52292e-47
2.52292e-47
8.2901e-47
8.2901e-47
8.2901e-47
8.2901e-47
2.62304e-46
2.62304e-46
2.62304e-46
2.62304e-46
7.99106e-46
7.99106e-46
7.99106e-46
7.99106e-46
2.34383e-45
2.34383e-45
2.34383e-45
2.34383e-45
6.6182e-45
6.6182e-45
6.6182e-45
6.6182e-45
1.79894e-44
1.79894e-44
1.79894e-44
1.79894e-44
4.70707e-44
4.70707e-44
4.70707e-44
4.70707e-44
1.18582e-43
1.18582e-43
1.18582e-43
1.18582e-43
2.87946e-43
2.87946e-43
2.87946e-43
2.87946e-43
6.77053e-43
6.77053e-43
6.77053e-43
6.77053e-43
1.56389e-42
1.56389e-42
1.56389e-42
1.56389e-42
3.66163e-42
3.66163e-42
3.66163e-42
3.66163e-42
8.55192e-42
8.55192e-42
8.55192e-42
8.55192e-42
1.92078e-41
1.92078e-41
1.92078e-41
1.92078e-41
4.15093e-41
4.15093e-41
4.15093e-41
4.15093e-41
8.80776e-41
8.80776e-41
8.80776e-41
8.80776e-41
2.90422e-40
2.90422e-40
2.90422e-40
2.90422e-40
6.36725e-39
6.36725e-39
6.36725e-39
6.36725e-39
2.52841e-37
2.52841e-37
2.52841e-37
2.52841e-37
8.45954e-36
8.45954e-36
8.45954e-36
8.45954e-36
2.20762e-34
2.20762e-34
2.20762e-34
2.20762e-34
4.2743e-33
4.2743e-33
4.2743e-33
4.2743e-33
5.66596e-32
5.66596e-32
5.66596e-32
5.66596e-32
4.43451e-31
4.43451e-31
4.43451e-31
4.43451e-31
1.57033e-30
1.57033e-30
1.57033e-30
1.57033e-30
5.08915e-30
5.08915e-30
5.08915e-30
5.08915e-30
1.50978e-29
1.50978e-29
1.50978e-29
1.50978e-29
3.90612e-29
3.90612e-29
3.90612e-29
3.90612e-29
6.88014e-29
6.88014e-29
6.88014e-29
6.88014e-29
2.14761e-30
2.14761e-30
2.14761e-30
2.14761e-30
3.67855e-30
3.67855e-30
3.67855e-30
3.67855e-30
1.09594e-31
1.09594e-31
1.09594e-31
1.09594e-31
1.83806e-31
1.83806e-31
1.83806e-31
1.83806e-31
3.63975e-33
3.63975e-33
3.63975e-33
3.63975e-33
5.74081e-37
5.74081e-37
5.74081e-37
5.74081e-37
4.77517e-38
4.77517e-38
4.77517e-38
4.77517e-38
4.30802e-38
4.30802e-38
4.30802e-38
4.30802e-38
3.73919e-38
3.73919e-38
3.73919e-38
3.73919e-38
3.11832e-38
3.11832e-38
3.11832e-38
3.11832e-38
2.49861e-38
2.49861e-38
2.49861e-38
2.49861e-38
1.92355e-38
1.92355e-38
1.92355e-38
1.92355e-38
1.42276e-38
1.42276e-38
1.42276e-38
1.42276e-38
1.01104e-38
1.01104e-38
1.01104e-38
1.01104e-38
6.90264e-39
6.90264e-39
6.90264e-39
6.90264e-39
4.52754e-39
4.52754e-39
4.52754e-39
4.52754e-39
2.85301e-39
2.85301e-39
2.85301e-39
2.85301e-39
1.72717e-39
1.72717e-39
1.72717e-39
1.72717e-39
1.0045e-39
1.0045e-39
1.0045e-39
1.0045e-39
5.61233e-40
5.61233e-40
5.61233e-40
5.61233e-40
3.01239e-40
3.01239e-40
3.01239e-40
3.01239e-40
1.55327e-40
1.55327e-40
1.55327e-40
1.55327e-40
7.69397e-41
7.69397e-41
7.69397e-41
7.69397e-41
3.66112e-41
3.66112e-41
3.66112e-41
3.66112e-41
1.67354e-41
1.67354e-41
1.67354e-41
1.67354e-41
7.3487e-42
7.3487e-42
7.3487e-42
7.3487e-42
3.09981e-42
3.09981e-42
3.09981e-42
3.09981e-42
1.25605e-42
1.25605e-42
1.25605e-42
1.25605e-42
4.88897e-43
4.88897e-43
4.88897e-43
4.88897e-43
1.82727e-43
1.82727e-43
1.82727e-43
1.82727e-43
6.50872e-44
6.50872e-44
6.50872e-44
6.50872e-44
1.97828e-44
1.97828e-44
1.97828e-44
1.97828e-44
8.39566e-78
8.39566e-78
8.39566e-78
8.39566e-78
1.81291e-76
1.81291e-76
1.81291e-76
1.81291e-76
2.23799e-75
2.23799e-75
2.23799e-75
2.23799e-75
2.67255e-74
2.67255e-74
2.67255e-74
2.67255e-74
3.08678e-73
3.08678e-73
3.08678e-73
3.08678e-73
3.44766e-72
3.44766e-72
3.44766e-72
3.44766e-72
3.72318e-71
3.72318e-71
3.72318e-71
3.72318e-71
3.88689e-70
3.88689e-70
3.88689e-70
3.88689e-70
3.92212e-69
3.92212e-69
3.92212e-69
3.92212e-69
3.82472e-68
3.82472e-68
3.82472e-68
3.82472e-68
3.6039e-67
3.6039e-67
3.6039e-67
3.6039e-67
3.28073e-66
3.28073e-66
3.28073e-66
3.28073e-66
2.88489e-65
2.88489e-65
2.88489e-65
2.88489e-65
2.45009e-64
2.45009e-64
2.45009e-64
2.45009e-64
2.0094e-63
2.0094e-63
2.0094e-63
2.0094e-63
1.59118e-62
1.59118e-62
1.59118e-62
1.59118e-62
1.2164e-61
1.2164e-61
1.2164e-61
1.2164e-61
8.9759e-61
8.9759e-61
8.9759e-61
8.9759e-61
6.39242e-60
6.39242e-60
6.39242e-60