# vtk DataFile Version 2.0
dg(0) output generated by Nextsim
ASCII
DATASET UNSTRUCTURED_GRID
FIELD FieldData 1
TIME 1 1 double
0
POINTS 40000 DOUBLE
0	0	0
0.01	0	0
0.01	0.01	0
0	0.01	0
0.01	0	0
0.02	0	0
0.02	0.01	0
0.01	0.01	0
0.02	0	0
0.03	0	0
0.03	0.01	0
0.02	0.01	0
0.03	0	0
0.04	0	0
0.04	0.01	0
0.03	0.01	0
0.04	0	0
0.05	0	0
0.05	0.01	0
0.04	0.01	0
0.05	0	0
0.06	0	0
0.06	0.01	0
0.05	0.01	0
0.06	0	0
0.07	0	0
0.07	0.01	0
0.06	0.01	0
0.07	0	0
0.08	0	0
0.08	0.01	0
0.07	0.01	0
0.08	0	0
0.09	0	0
0.09	0.01	0
0.08	0.01	0
0.09	0	0
0.1	0	0
0.1	0.01	0
0.09	0.01	0
0.1	0	0
0.11	0	0
0.11	0.01	0
0.1	0.01	0
0.11	0	0
0.12	0	0
0.12	0.01	0
0.11	0.01	0
0.12	0	0
0.13	0	0
0.13	0.01	0
0.12	0.01	0
0.13	0	0
0.14	0	0
0.14	0.01	0
0.13	0.01	0
0.14	0	0
0.15	0	0
0.15	0.01	0
0.14	0.01	0
0.15	0	0
0.16	0	0
0.16	0.01	0
0.15	0.01	0
0.16	0	0
0.17	0	0
0.17	0.01	0
0.16	0.01	0
0.17	0	0
0.18	0	0
0.18	0.01	0
0.17	0.01	0
0.18	0	0
0.19	0	0
0.19	0.01	0
0.18	0.01	0
0.19	0	0
0.2	0	0
0.2	0.01	0
0.19	0.01	0
0.2	0	0
0.21	0	0
0.21	0.01	0
0.2	0.01	0
0.21	0	0
0.22	0	0
0.22	0.01	0
0.21	0.01	0
0.22	0	0
0.23	0	0
0.23	0.01	0
0.22	0.01	0
0.23	0	0
0.24	0	0
0.24	0.01	0
0.23	0.01	0
0.24	0	0
0.25	0	0
0.25	0.01	0
0.24	0.01	0
0.25	0	0
0.26	0	0
0.26	0.01	0
0.25	0.01	0
0.26	0	0
0.27	0	0
0.27	0.01	0
0.26	0.01	0
0.27	0	0
0.28	0	0
0.28	0.01	0
0.27	0.01	0
0.28	0	0
0.29	0	0
0.29	0.01	0
0.28	0.01	0
0.29	0	0
0.3	0	0
0.3	0.01	0
0.29	0.01	0
0.3	0	0
0.31	0	0
0.31	0.01	0
0.3	0.01	0
0.31	0	0
0.32	0	0
0.32	0.01	0
0.31	0.01	0
0.32	0	0
0.33	0	0
0.33	0.01	0
0.32	0.01	0
0.33	0	0
0.34	0	0
0.34	0.01	0
0.33	0.01	0
0.34	0	0
0.35	0	0
0.35	0.01	0
0.34	0.01	0
0.35	0	0
0.36	0	0
0.36	0.01	0
0.35	0.01	0
0.36	0	0
0.37	0	0
0.37	0.01	0
0.36	0.01	0
0.37	0	0
0.38	0	0
0.38	0.01	0
0.37	0.01	0
0.38	0	0
0.39	0	0
0.39	0.01	0
0.38	0.01	0
0.39	0	0
0.4	0	0
0.4	0.01	0
0.39	0.01	0
0.4	0	0
0.41	0	0
0.41	0.01	0
0.4	0.01	0
0.41	0	0
0.42	0	0
0.42	0.01	0
0.41	0.01	0
0.42	0	0
0.43	0	0
0.43	0.01	0
0.42	0.01	0
0.43	0	0
0.44	0	0
0.44	0.01	0
0.43	0.01	0
0.44	0	0
0.45	0	0
0.45	0.01	0
0.44	0.01	0
0.45	0	0
0.46	0	0
0.46	0.01	0
0.45	0.01	0
0.46	0	0
0.47	0	0
0.47	0.01	0
0.46	0.01	0
0.47	0	0
0.48	0	0
0.48	0.01	0
0.47	0.01	0
0.48	0	0
0.49	0	0
0.49	0.01	0
0.48	0.01	0
0.49	0	0
0.5	0	0
0.5	0.01	0
0.49	0.01	0
0.5	0	0
0.51	0	0
0.51	0.01	0
0.5	0.01	0
0.51	0	0
0.52	0	0
0.52	0.01	0
0.51	0.01	0
0.52	0	0
0.53	0	0
0.53	0.01	0
0.52	0.01	0
0.53	0	0
0.54	0	0
0.54	0.01	0
0.53	0.01	0
0.54	0	0
0.55	0	0
0.55	0.01	0
0.54	0.01	0
0.55	0	0
0.56	0	0
0.56	0.01	0
0.55	0.01	0
0.56	0	0
0.57	0	0
0.57	0.01	0
0.56	0.01	0
0.57	0	0
0.58	0	0
0.58	0.01	0
0.57	0.01	0
0.58	0	0
0.59	0	0
0.59	0.01	0
0.58	0.01	0
0.59	0	0
0.6	0	0
0.6	0.01	0
0.59	0.01	0
0.6	0	0
0.61	0	0
0.61	0.01	0
0.6	0.01	0
0.61	0	0
0.62	0	0
0.62	0.01	0
0.61	0.01	0
0.62	0	0
0.63	0	0
0.63	0.01	0
0.62	0.01	0
0.63	0	0
0.64	0	0
0.64	0.01	0
0.63	0.01	0
0.64	0	0
0.65	0	0
0.65	0.01	0
0.64	0.01	0
0.65	0	0
0.66	0	0
0.66	0.01	0
0.65	0.01	0
0.66	0	0
0.67	0	0
0.67	0.01	0
0.66	0.01	0
0.67	0	0
0.68	0	0
0.68	0.01	0
0.67	0.01	0
0.68	0	0
0.69	0	0
0.69	0.01	0
0.68	0.01	0
0.69	0	0
0.7	0	0
0.7	0.01	0
0.69	0.01	0
0.7	0	0
0.71	0	0
0.71	0.01	0
0.7	0.01	0
0.71	0	0
0.72	0	0
0.72	0.01	0
0.71	0.01	0
0.72	0	0
0.73	0	0
0.73	0.01	0
0.72	0.01	0
0.73	0	0
0.74	0	0
0.74	0.01	0
0.73	0.01	0
0.74	0	0
0.75	0	0
0.75	0.01	0
0.74	0.01	0
0.75	0	0
0.76	0	0
0.76	0.01	0
0.75	0.01	0
0.76	0	0
0.77	0	0
0.77	0.01	0
0.76	0.01	0
0.77	0	0
0.78	0	0
0.78	0.01	0
0.77	0.01	0
0.78	0	0
0.79	0	0
0.79	0.01	0
0.78	0.01	0
0.79	0	0
0.8	0	0
0.8	0.01	0
0.79	0.01	0
0.8	0	0
0.81	0	0
0.81	0.01	0
0.8	0.01	0
0.81	0	0
0.82	0	0
0.82	0.01	0
0.81	0.01	0
0.82	0	0
0.83	0	0
0.83	0.01	0
0.82	0.01	0
0.83	0	0
0.84	0	0
0.84	0.01	0
0.83	0.01	0
0.84	0	0
0.85	0	0
0.85	0.01	0
0.84	0.01	0
0.85	0	0
0.86	0	0
0.86	0.01	0
0.85	0.01	0
0.86	0	0
0.87	0	0
0.87	0.01	0
0.86	0.01	0
0.87	0	0
0.88	0	0
0.88	0.01	0
0.87	0.01	0
0.88	0	0
0.89	0	0
0.89	0.01	0
0.88	0.01	0
0.89	0	0
0.9	0	0
0.9	0.01	0
0.89	0.01	0
0.9	0	0
0.91	0	0
0.91	0.01	0
0.9	0.01	0
0.91	0	0
0.92	0	0
0.92	0.01	0
0.91	0.01	0
0.92	0	0
0.93	0	0
0.93	0.01	0
0.92	0.01	0
0.93	0	0
0.94	0	0
0.94	0.01	0
0.93	0.01	0
0.94	0	0
0.95	0	0
0.95	0.01	0
0.94	0.01	0
0.95	0	0
0.96	0	0
0.96	0.01	0
0.95	0.01	0
0.96	0	0
0.97	0	0
0.97	0.01	0
0.96	0.01	0
0.97	0	0
0.98	0	0
0.98	0.01	0
0.97	0.01	0
0.98	0	0
0.99	0	0
0.99	0.01	0
0.98	0.01	0
0.99	0	0
1	0	0
1	0.01	0
0.99	0.01	0
0	0.01	0
0.01	0.01	0
0.01	0.02	0
0	0.02	0
0.01	0.01	0
0.02	0.01	0
0.02	0.02	0
0.01	0.02	0
0.02	0.01	0
0.03	0.01	0
0.03	0.02	0
0.02	0.02	0
0.03	0.01	0
0.04	0.01	0
0.04	0.02	0
0.03	0.02	0
0.04	0.01	0
0.05	0.01	0
0.05	0.02	0
0.04	0.02	0
0.05	0.01	0
0.06	0.01	0
0.06	0.02	0
0.05	0.02	0
0.06	0.01	0
0.07	0.01	0
0.07	0.02	0
0.06	0.02	0
0.07	0.01	0
0.08	0.01	0
0.08	0.02	0
0.07	0.02	0
0.08	0.01	0
0.09	0.01	0
0.09	0.02	0
0.08	0.02	0
0.09	0.01	0
0.1	0.01	0
0.1	0.02	0
0.09	0.02	0
0.1	0.01	0
0.11	0.01	0
0.11	0.02	0
0.1	0.02	0
0.11	0.01	0
0.12	0.01	0
0.12	0.02	0
0.11	0.02	0
0.12	0.01	0
0.13	0.01	0
0.13	0.02	0
0.12	0.02	0
0.13	0.01	0
0.14	0.01	0
0.14	0.02	0
0.13	0.02	0
0.14	0.01	0
0.15	0.01	0
0.15	0.02	0
0.14	0.02	0
0.15	0.01	0
0.16	0.01	0
0.16	0.02	0
0.15	0.02	0
0.16	0.01	0
0.17	0.01	0
0.17	0.02	0
0.16	0.02	0
0.17	0.01	0
0.18	0.01	0
0.18	0.02	0
0.17	0.02	0
0.18	0.01	0
0.19	0.01	0
0.19	0.02	0
0.18	0.02	0
0.19	0.01	0
0.2	0.01	0
0.2	0.02	0
0.19	0.02	0
0.2	0.01	0
0.21	0.01	0
0.21	0.02	0
0.2	0.02	0
0.21	0.01	0
0.22	0.01	0
0.22	0.02	0
0.21	0.02	0
0.22	0.01	0
0.23	0.01	0
0.23	0.02	0
0.22	0.02	0
0.23	0.01	0
0.24	0.01	0
0.24	0.02	0
0.23	0.02	0
0.24	0.01	0
0.25	0.01	0
0.25	0.02	0
0.24	0.02	0
0.25	0.01	0
0.26	0.01	0
0.26	0.02	0
0.25	0.02	0
0.26	0.01	0
0.27	0.01	0
0.27	0.02	0
0.26	0.02	0
0.27	0.01	0
0.28	0.01	0
0.28	0.02	0
0.27	0.02	0
0.28	0.01	0
0.29	0.01	0
0.29	0.02	0
0.28	0.02	0
0.29	0.01	0
0.3	0.01	0
0.3	0.02	0
0.29	0.02	0
0.3	0.01	0
0.31	0.01	0
0.31	0.02	0
0.3	0.02	0
0.31	0.01	0
0.32	0.01	0
0.32	0.02	0
0.31	0.02	0
0.32	0.01	0
0.33	0.01	0
0.33	0.02	0
0.32	0.02	0
0.33	0.01	0
0.34	0.01	0
0.34	0.02	0
0.33	0.02	0
0.34	0.01	0
0.35	0.01	0
0.35	0.02	0
0.34	0.02	0
0.35	0.01	0
0.36	0.01	0
0.36	0.02	0
0.35	0.02	0
0.36	0.01	0
0.37	0.01	0
0.37	0.02	0
0.36	0.02	0
0.37	0.01	0
0.38	0.01	0
0.38	0.02	0
0.37	0.02	0
0.38	0.01	0
0.39	0.01	0
0.39	0.02	0
0.38	0.02	0
0.39	0.01	0
0.4	0.01	0
0.4	0.02	0
0.39	0.02	0
0.4	0.01	0
0.41	0.01	0
0.41	0.02	0
0.4	0.02	0
0.41	0.01	0
0.42	0.01	0
0.42	0.02	0
0.41	0.02	0
0.42	0.01	0
0.43	0.01	0
0.43	0.02	0
0.42	0.02	0
0.43	0.01	0
0.44	0.01	0
0.44	0.02	0
0.43	0.02	0
0.44	0.01	0
0.45	0.01	0
0.45	0.02	0
0.44	0.02	0
0.45	0.01	0
0.46	0.01	0
0.46	0.02	0
0.45	0.02	0
0.46	0.01	0
0.47	0.01	0
0.47	0.02	0
0.46	0.02	0
0.47	0.01	0
0.48	0.01	0
0.48	0.02	0
0.47	0.02	0
0.48	0.01	0
0.49	0.01	0
0.49	0.02	0
0.48	0.02	0
0.49	0.01	0
0.5	0.01	0
0.5	0.02	0
0.49	0.02	0
0.5	0.01	0
0.51	0.01	0
0.51	0.02	0
0.5	0.02	0
0.51	0.01	0
0.52	0.01	0
0.52	0.02	0
0.51	0.02	0
0.52	0.01	0
0.53	0.01	0
0.53	0.02	0
0.52	0.02	0
0.53	0.01	0
0.54	0.01	0
0.54	0.02	0
0.53	0.02	0
0.54	0.01	0
0.55	0.01	0
0.55	0.02	0
0.54	0.02	0
0.55	0.01	0
0.56	0.01	0
0.56	0.02	0
0.55	0.02	0
0.56	0.01	0
0.57	0.01	0
0.57	0.02	0
0.56	0.02	0
0.57	0.01	0
0.58	0.01	0
0.58	0.02	0
0.57	0.02	0
0.58	0.01	0
0.59	0.01	0
0.59	0.02	0
0.58	0.02	0
0.59	0.01	0
0.6	0.01	0
0.6	0.02	0
0.59	0.02	0
0.6	0.01	0
0.61	0.01	0
0.61	0.02	0
0.6	0.02	0
0.61	0.01	0
0.62	0.01	0
0.62	0.02	0
0.61	0.02	0
0.62	0.01	0
0.63	0.01	0
0.63	0.02	0
0.62	0.02	0
0.63	0.01	0
0.64	0.01	0
0.64	0.02	0
0.63	0.02	0
0.64	0.01	0
0.65	0.01	0
0.65	0.02	0
0.64	0.02	0
0.65	0.01	0
0.66	0.01	0
0.66	0.02	0
0.65	0.02	0
0.66	0.01	0
0.67	0.01	0
0.67	0.02	0
0.66	0.02	0
0.67	0.01	0
0.68	0.01	0
0.68	0.02	0
0.67	0.02	0
0.68	0.01	0
0.69	0.01	0
0.69	0.02	0
0.68	0.02	0
0.69	0.01	0
0.7	0.01	0
0.7	0.02	0
0.69	0.02	0
0.7	0.01	0
0.71	0.01	0
0.71	0.02	0
0.7	0.02	0
0.71	0.01	0
0.72	0.01	0
0.72	0.02	0
0.71	0.02	0
0.72	0.01	0
0.73	0.01	0
0.73	0.02	0
0.72	0.02	0
0.73	0.01	0
0.74	0.01	0
0.74	0.02	0
0.73	0.02	0
0.74	0.01	0
0.75	0.01	0
0.75	0.02	0
0.74	0.02	0
0.75	0.01	0
0.76	0.01	0
0.76	0.02	0
0.75	0.02	0
0.76	0.01	0
0.77	0.01	0
0.77	0.02	0
0.76	0.02	0
0.77	0.01	0
0.78	0.01	0
0.78	0.02	0
0.77	0.02	0
0.78	0.01	0
0.79	0.01	0
0.79	0.02	0
0.78	0.02	0
0.79	0.01	0
0.8	0.01	0
0.8	0.02	0
0.79	0.02	0
0.8	0.01	0
0.81	0.01	0
0.81	0.02	0
0.8	0.02	0
0.81	0.01	0
0.82	0.01	0
0.82	0.02	0
0.81	0.02	0
0.82	0.01	0
0.83	0.01	0
0.83	0.02	0
0.82	0.02	0
0.83	0.01	0
0.84	0.01	0
0.84	0.02	0
0.83	0.02	0
0.84	0.01	0
0.85	0.01	0
0.85	0.02	0
0.84	0.02	0
0.85	0.01	0
0.86	0.01	0
0.86	0.02	0
0.85	0.02	0
0.86	0.01	0
0.87	0.01	0
0.87	0.02	0
0.86	0.02	0
0.87	0.01	0
0.88	0.01	0
0.88	0.02	0
0.87	0.02	0
0.88	0.01	0
0.89	0.01	0
0.89	0.02	0
0.88	0.02	0
0.89	0.01	0
0.9	0.01	0
0.9	0.02	0
0.89	0.02	0
0.9	0.01	0
0.91	0.01	0
0.91	0.02	0
0.9	0.02	0
0.91	0.01	0
0.92	0.01	0
0.92	0.02	0
0.91	0.02	0
0.92	0.01	0
0.93	0.01	0
0.93	0.02	0
0.92	0.02	0
0.93	0.01	0
0.94	0.01	0
0.94	0.02	0
0.93	0.02	0
0.94	0.01	0
0.95	0.01	0
0.95	0.02	0
0.94	0.02	0
0.95	0.01	0
0.96	0.01	0
0.96	0.02	0
0.95	0.02	0
0.96	0.01	0
0.97	0.01	0
0.97	0.02	0
0.96	0.02	0
0.97	0.01	0
0.98	0.01	0
0.98	0.02	0
0.97	0.02	0
0.98	0.01	0
0.99	0.01	0
0.99	0.02	0
0.98	0.02	0
0.99	0.01	0
1	0.01	0
1	0.02	0
0.99	0.02	0
0	0.02	0
0.01	0.02	0
0.01	0.03	0
0	0.03	0
0.01	0.02	0
0.02	0.02	0
0.02	0.03	0
0.01	0.03	0
0.02	0.02	0
0.03	0.02	0
0.03	0.03	0
0.02	0.03	0
0.03	0.02	0
0.04	0.02	0
0.04	0.03	0
0.03	0.03	0
0.04	0.02	0
0.05	0.02	0
0.05	0.03	0
0.04	0.03	0
0.05	0.02	0
0.06	0.02	0
0.06	0.03	0
0.05	0.03	0
0.06	0.02	0
0.07	0.02	0
0.07	0.03	0
0.06	0.03	0
0.07	0.02	0
0.08	0.02	0
0.08	0.03	0
0.07	0.03	0
0.08	0.02	0
0.09	0.02	0
0.09	0.03	0
0.08	0.03	0
0.09	0.02	0
0.1	0.02	0
0.1	0.03	0
0.09	0.03	0
0.1	0.02	0
0.11	0.02	0
0.11	0.03	0
0.1	0.03	0
0.11	0.02	0
0.12	0.02	0
0.12	0.03	0
0.11	0.03	0
0.12	0.02	0
0.13	0.02	0
0.13	0.03	0
0.12	0.03	0
0.13	0.02	0
0.14	0.02	0
0.14	0.03	0
0.13	0.03	0
0.14	0.02	0
0.15	0.02	0
0.15	0.03	0
0.14	0.03	0
0.15	0.02	0
0.16	0.02	0
0.16	0.03	0
0.15	0.03	0
0.16	0.02	0
0.17	0.02	0
0.17	0.03	0
0.16	0.03	0
0.17	0.02	0
0.18	0.02	0
0.18	0.03	0
0.17	0.03	0
0.18	0.02	0
0.19	0.02	0
0.19	0.03	0
0.18	0.03	0
0.19	0.02	0
0.2	0.02	0
0.2	0.03	0
[...]
POINT_DATA 40000
SCALARS dg0 DOUBLE 
LOOKUP_TABLE default
1.23016e-84
1.23016e-84
1.23016e-84
1.23016e-84
1.94364e-83
1.94364e-83
1.94364e-83
1.94364e-83
2.95051e-82
2.95051e-82
2.95051e-82
2.95051e-82
4.30334e-81
4.30334e-81
4.30334e-81
4.30334e-81
6.03036e-80
6.03036e-80
6.03036e-80
6.03036e-80
8.11912e-79
8.11912e-79
8.11912e-79
8.11912e-79
1.05028e-77
1.05028e-77
1.05028e-77
1.05028e-77
1.30534e-76
1.30534e-76
1.30534e-76
1.30534e-76
1.55875e-75
1.55875e-75
1.55875e-75
1.55875e-75
1.78836e-74
1.78836e-74
1.78836e-74
1.78836e-74
1.97134e-73
1.97134e-73
1.97134e-73
1.97134e-73
2.08783e-72
2.08783e-72
2.08783e-72
2.08783e-72
2.12451e-71
2.12451e-71
2.12451e-71
2.12451e-71
2.07707e-70
2.07707e-70
2.07707e-70
2.07707e-70
1.95106e-69
1.95106e-69
1.95106e-69
1.95106e-69
1.76083e-68
1.76083e-68
1.76083e-68
1.76083e-68
1.52684e-67
1.52684e-67
1.52684e-67
1.52684e-67
1.27203e-66
1.27203e-66
1.27203e-66
1.27203e-66
1.01819e-65
1.01819e-65
1.01819e-65
1.01819e-65
7.83054e-65
7.83054e-65
7.83054e-65
7.83054e-65
5.78603e-64
5.78603e-64
5.78603e-64
5.78603e-64
4.10769e-63
4.10769e-63
4.10769e-63
4.10769e-63
2.80184e-62
2.80184e-62
2.80184e-62
2.80184e-62
1.83619e-61
1.83619e-61
1.83619e-61
1.83619e-61
1.15616e-60
1.15616e-60
1.15616e-60
1.15616e-60
6.99437e-60
6.99437e-60
6.99437e-60
6.99437e-60
4.06543e-59
4.06543e-59
4.06543e-59
4.06543e-59
2.27035e-58
2.27035e-58
2.27035e-58
2.27035e-58
1.21817e-57
1.21817e-57
1.21817e-57
1.21817e-57
6.27988e-57
6.27988e-57
6.27988e-57
6.27988e-57
3.11044e-56
3.11044e-56
3.11044e-56
3.11044e-56
1.4802e-55
1.4802e-55
1.4802e-55
1.4802e-55
6.76783e-55
6.76783e-55
6.76783e-55
6.76783e-55
2.97307e-54
2.97307e-54
2.97307e-54
2.97307e-54
1.25484e-53
1.25484e-53
1.25484e-53
1.25484e-53
5.08864e-53
5.08864e-53
5.08864e-53
5.08864e-53
1.98263e-52
1.98263e-52
1.98263e-52
1.98263e-52
7.42182e-52
7.42182e-52
7.42182e-52
7.42182e-52
2.66936e-51
2.66936e-51
2.66936e-51
2.66936e-51
9.22429e-51
9.22429e-51
9.22429e-51
9.22429e-51
3.06257e-50
3.06257e-50
3.06257e-50
3.06257e-50
9.7694e-50
9.7694e-50
9.7694e-50
9.7694e-50
2.99418e-49
2.99418e-49
2.99418e-49
2.99418e-49
8.81689e-49
8.81689e-49
8.81689e-49
8.81689e-49
2.49449e-48
2.49449e-48
2.49449e-48
2.49449e-48
6.78073e-48
6.78073e-48
6.78073e-48
6.78073e-48
1.77092e-47
1.77092e-47
1.77092e-47
1.77092e-47
4.44375e-47
4.44375e-47
4.44375e-47
4.44375e-47
1.07134e-46
1.07134e-46
1.07134e-46
1.07134e-46
2.48163e-46
2.48163e-46
2.48163e-46
2.48163e-46
5.52296e-46
5.52296e-46
5.52296e-46
5.52296e-46
1.18096e-45
1.18096e-45
1.18096e-45
1.18096e-45
2.42621e-45
2.42621e-45
2.42621e-45
2.42621e-45
4.78904e-45
4.78904e-45
4.78904e-45
4.78904e-45
9.08232e-45
9.08232e-45
9.08232e-45
9.08232e-45
1.65491e-44
1.65491e-44
1.65491e-44
1.65491e-44
2.8972e-44
2.8972e-44
2.8972e-44
2.8972e-44
4.87317e-44
4.87317e-44
4.87317e-44
4.87317e-44
7.8754e-44
7.8754e-44
7.8754e-44
7.8754e-44
1.22282e-43
1.22282e-43
1.22282e-43
1.22282e-43
1.82423e-43
1.82423e-43
1.82423e-43
1.82423e-43
2.61473e-43
2.61473e-43
2.61473e-43
2.61473e-43
3.60081e-43
3.60081e-43
3.60081e-43
3.60081e-43
4.76434e-43
4.76434e-43
4.76434e-43
4.76434e-43
6.05666e-43
6.05666e-43
6.05666e-43
6.05666e-43
7.39762e-43
7.39762e-43
7.39762e-43
7.39762e-43
8.68119e-43
8.68119e-43
8.68119e-43
8.68119e-43
9.78802e-43
9.78802e-43
9.78802e-43
9.78802e-43
1.06032e-42
1.06032e-42
1.06032e-42
1.06032e-42
1.1036e-42
1.1036e-42
1.1036e-42
1.1036e-42
1.1036e-42
1.1036e-42
1.1036e-42
1.1036e-42
1.06032e-42
1.06032e-42
1.06032e-42
1.06032e-42
9.78802e-43
9.78802e-43
9.78802e-43
9.78802e-43
8.68119e-43
8.68119e-43
8.68119e-43
8.68119e-43
7.39762e-43
7.39762e-43
7.39762e-43
7.39762e-43
6.05666e-43
6.05666e-43
6.05666e-43
6.05666e-43
4.76434e-43
4.76434e-43
4.76434e-43
4.76434e-43
3.60081e-43
3.60081e-43
3.60081e-43
3.60081e-43
2.61473e-43
2.61473e-43
2.61473e-43
2.61473e-43
1.82423e-43
1.82423e-43
1.82423e-43
1.82423e-43
1.22282e-43
1.22282e-43
1.22282e-43
1.22282e-43
7.8754e-44
7.8754e-44
7.8754e-44
7.8754e-44
4.87317e-44
4.87317e-44
4.87317e-44
4.87317e-44
2.8972e-44
2.8972e-44
2.8972e-44
2.8972e-44
1.65491e-44
1.65491e-44
1.65491e-44
1.65491e-44
9.08232e-45
9.08232e-45
9.08232e-45
9.08232e-45
4.78904e-45
4.78904e-45
4.78904e-45
4.78904e-45
2.42621e-45
2.42621e-45
2.42621e-45
2.42621e-45
1.18096e-45
1.18096e-45
1.18096e-45
1.18096e-45
5.52296e-46
5.52296e-46
5.52296e-46
5.52296e-46
2.48163e-46
2.48163e-46
2.48163e-46
2.48163e-46
1.07134e-46
1.07134e-46
1.07134e-46
1.07134e-46
4.44375e-47
4.44375e-47
4.44375e-47
4.44375e-47
1.77092e-47
1.77092e-47
1.77092e-47
1.77092e-47
6.78073e-48
6.78073e-48
6.78073e-48
6.78073e-48
2.49449e-48
2.49449e-48
2.49449e-48
2.49449e-48
8.81689e-49
8.81689e-49
8.81689e-49
8.81689e-49
2.99418e-49
2.99418e-49
2.99418e-49
2.99418e-49
9.7694e-50
9.7694e-50
9.7694e-50
9.7694e-50
3.06257e-50
3.06257e-50
3.06257e-50
3.06257e-50
1.94364e-83
1.94364e-83
1.94364e-83
1.94364e-83
3.07092e-82
3.07092e-82
3.07092e-82
3.07092e-82
4.66176e-81
4.66176e-81
4.66176e-81
4.66176e-81
6.79922e-80
6.79922e-80
6.79922e-80
6.79922e-80
9.52788e-79
9.52788e-79
9.52788e-79
9.52788e-79
1.28281e-77
1.28281e-77
1.28281e-77
1.28281e-77
1.65942e-76
1.65942e-76
1.65942e-76
1.65942e-76
2.06242e-75
2.06242e-75
2.06242e-75
2.06242e-75
2.46279e-74
2.46279e-74
2.46279e-74
2.46279e-74
2.82557e-73
2.82557e-73
2.82557e-73
2.82557e-73
3.11468e-72
3.11468e-72
3.11468e-72
3.11468e-72
3.29874e-71
3.29874e-71
3.29874e-71
3.29874e-71
3.35669e-70
3.35669e-70
3.35669e-70
3.35669e-70
3.28173e-69
3.28173e-69
3.28173e-69
3.28173e-69
3.08264e-68
3.08264e-68
3.08264e-68
3.08264e-68
2.78209e-67
2.78209e-67
2.78209e-67
2.78209e-67
2.41239e-66
2.41239e-66
2.41239e-66
2.41239e-66
2.00979e-65
2.00979e-65
2.00979e-65
2.00979e-65
1.60873e-64
1.60873e-64
1.60873e-64
1.60873e-64
1.23721e-63
1.23721e-63
1.23721e-63
1.23721e-63
9.14183e-63
9.14183e-63
9.14183e-63
9.14183e-63
6.49009e-62
6.49009e-62
6.49009e-62
6.49009e-62
4.42686e-61
4.42686e-61
4.42686e-61
4.42686e-61
2.90115e-60
2.90115e-60
2.90115e-60
2.90115e-60
1.82672e-59
1.82672e-59
1.82672e-59
1.82672e-59
1.1051e-58
1.1051e-58
1.1051e-58
1.1051e-58
6.42332e-58
6.42332e-58
6.42332e-58
6.42332e-58
3.58712e-57
3.58712e-57
3.58712e-57
3.58712e-57
1.92469e-56
1.92469e-56
1.92469e-56
1.92469e-56
9.92211e-56
9.92211e-56
9.92211e-56
9.92211e-56
4.91445e-55
4.91445e-55
4.91445e-55
4.91445e-55
2.3387e-54
2.3387e-54
2.3387e-54
2.3387e-54
1.06931e-53
1.06931e-53
1.06931e-53
1.06931e-53
4.6974e-53
4.6974e-53
4.6974e-53
4.6974e-53
1.98263e-52
1.98263e-52
1.98263e-52
1.98263e-52
8.03997e-52
8.03997e-52
8.03997e-52
8.03997e-52
3.13253e-51
3.13253e-51
3.13253e-51
3.13253e-51
1.17264e-50
1.17264e-50
1.17264e-50
1.17264e-50
4.21755e-50
4.21755e-50
4.21755e-50
4.21755e-50
1.45742e-49
1.45742e-49
1.45742e-49
1.45742e-49
4.83881e-49
4.83881e-49
4.83881e-49
4.83881e-49
1.54355e-48
1.54355e-48
1.54355e-48
1.54355e-48
4.73075e-48
4.73075e-48
4.73075e-48
4.73075e-48
1.39306e-47
1.39306e-47
1.39306e-47
1.39306e-47
3.94126e-47
3.94126e-47
3.94126e-47
3.94126e-47
1.07134e-46
1.07134e-46
1.07134e-46
1.07134e-46
2.79803e-46
2.79803e-46
2.79803e-46
2.79803e-46
7.02106e-46
7.02106e-46
7.02106e-46
7.02106e-46
1.69271e-45
1.69271e-45
1.69271e-45
1.69271e-45
3.92093e-45
3.92093e-45
3.92093e-45
3.92093e-45
8.72619e-45
8.72619e-45
8.72619e-45
8.72619e-45
1.8659e-44
1.8659e-44
1.8659e-44
1.8659e-44
3.83337e-44
3.83337e-44
3.83337e-44
3.83337e-44
7.5666e-44
7.5666e-44
7.5666e-44
7.5666e-44
1.43499e-43
1.43499e-43
1.43499e-43
1.43499e-43
2.61473e-43
2.61473e-43
2.61473e-43
2.61473e-43
4.57753e-43
4.57753e-43
4.57753e-43
4.57753e-43
7.69953e-43
7.69953e-43
7.69953e-43
7.69953e-43
1.2443e-42
1.2443e-42
1.2443e-42
1.2443e-42
1.93204e-42
1.93204e-42
1.93204e-42
1.93204e-42
2.88226e-42
2.88226e-42
2.88226e-42
2.88226e-42
4.13122e-42
4.13122e-42
4.13122e-42
4.13122e-42
5.68922e-42
5.68922e-42
5.68922e-42
5.68922e-42
7.52758e-42
7.52758e-42
7.52758e-42
7.52758e-42
9.56943e-42
9.56943e-42
9.56943e-42
9.56943e-42
1.16881e-41
1.16881e-41
1.16881e-41
1.16881e-41
1.37161e-41
1.37161e-41
1.37161e-41
1.37161e-41
1.54649e-41
1.54649e-41
1.54649e-41
1.54649e-41
1.67529e-41
1.67529e-41
1.67529e-41
1.67529e-41
1.74366e-41
1.74366e-41
1.74366e-41
1.74366e-41
1.74366e-41
1.74366e-41
1.74366e-41
1.74366e-41
1.67529e-41
1.67529e-41
1.67529e-41
1.67529e-41
1.54649e-41
1.54649e-41
1.54649e-41
1.54649e-41
1.37161e-41
1.37161e-41
1.37161e-41
1.37161e-41
1.16881e-41
1.16881e-41
1.16881e-41
1.16881e-41
9.56943e-42
9.56943e-42
9.56943e-42
9.56943e-42
7.52758e-42
7.52758e-42
7.52758e-42
7.52758e-42
5.68922e-42
5.68922e-42
5.68922e-42
5.68922e-42
4.13122e-42
4.13122e-42
4.13122e-42
4.13122e-42
2.88226e-42
2.88226e-42
2.88226e-42
2.88226e-42
1.93204e-42
1.93204e-42
1.93204e-42
1.93204e-42
1.2443e-42
1.2443e-42
1.2443e-42
1.2443e-42
7.69953e-43
7.69953e-43
7.69953e-43
7.69953e-43
4.57753e-43
4.57753e-43
4.57753e-43
4.57753e-43
2.61473e-43
2.61473e-43
2.61473e-43
2.61473e-43
1.43499e-43
1.43499e-43
1.43499e-43
1.43499e-43
7.5666e-44
7.5666e-44
7.5666e-44
7.5666e-44
3.83337e-44
3.83337e-44
3.83337e-44
3.83337e-44
1.8659e-44
1.8659e-44
1.8659e-44
1.8659e-44
8.72619e-45
8.72619e-45
8.72619e-45
8.72619e-45
3.92093e-45
3.92093e-45
3.92093e-45
3.92093e-45
1.69271e-45
1.69271e-45
1.69271e-45
1.69271e-45
7.02106e-46
7.02106e-46
7.02106e-46
7.02106e-46
2.79803e-46
2.79803e-46
2.79803e-46
2.79803e-46
1.07134e-46
1.07134e-46
1.07134e-46
1.07134e-46
3.94126e-47
3.94126e-47
3.94126e-47
3.94126e-47
1.39306e-47
1.39306e-47
1.39306e-47
1.39306e-47
4.73075e-48
4.73075e-48
4.73075e-48
4.73075e-48
1.54355e-48
1.54355e-48
1.54355e-48
1.54355e-48
4.83881e-49
4.83881e-49
4.83881e-49
4.83881e-49
2.95051e-82
2.95051e-82
2.95051e-82
2.95051e-82
4.66176e-81
4.66176e-81
4.66176e-81
4.66176e-81
7.0767e-80
7.0767e-80
7.0767e-80
7.0767e-80
1.03214e-78
1.03214e-78
1.03214e-78
1.03214e-78
1.44636e-77
1.44636e-77
1.44636e-77
1.44636e-77
1.94735e-76
1.94735e-76
1.94735e-76
1.94735e-76
2.51905e-75
2.51905e-75
2.51905e-75
2.51905e-75
3.13083e-74
3.13083e-74
3.13083e-74
3.13083e-74
3.7386e-73
3.7386e-73
3.7386e-73
3.7386e-73
4.28931e-72
4.28931e-72
4.28931e-72
4.28931e-72
4.72819e-71
4.72819e-71
4.72819e-71
4.72819e-71
5.0076e-70
5.0076e-70
5.0076e-70
5.0076e-70
5.09557e-69
5.09557e-69
5.09557e-69
5.09557e-69
4.98178e-68
4.98178e-68
4.98178e-68
4.98178e-68
4.67955e-67
4.67955e-67
4.67955e-67
4.67955e-67
4.2233e-66
4.2233e-66
4.2233e-66
4.2233e-66
3.66208e-65
3.66208e-65
3.66208e-65
3.66208e-65
3.05093e-64
3.05093e-64
3.05093e-64
3.05093e-64
2.44211e-63
2.44211e-63
2.44211e-63
2.44211e-63
1.87813e-62
1.87813e-62
1.87813e-62
1.87813e-62
1.38776e-61
1.38776e-61
1.38776e-61
1.38776e-61
9.85216e-61
9.85216e-61
9.85216e-61
9.85216e-61
6.72012e-60
6.72012e-60
6.72012e-60
6.72012e-60
4.40403e-59
4.40403e-59
4.40403e-59
4.40403e-59
2.77302e-58
2.77302e-58
2.77302e-58
2.77302e-58
1.67758e-57
1.67758e-57
1.67758e-57
1.67758e-57
9.75081e-57
9.75081e-57
9.75081e-57
9.75081e-57
5.44537e-56
5.44537e-56
5.44537e-56
5.44537e-56
2.92174e-55
2.92174e-55
2.92174e-55
2.92174e-55
1.50621e-54
1.50621e-54
1.50621e-54
1.50621e-54
7.4603e-54
7.4603e-54
7.4603e-54
7.4603e-54
3.55022e-53
3.55022e-53
3.55022e-53
3.55022e-53
1.62324e-52
1.62324e-52
1.62324e-52
1.62324e-52
7.13081e-52
7.13081e-52
7.13081e-52
7.13081e-52
3.0097e-51
3.0097e-51
3.0097e-51
3.0097e-51
1.22049e-50
1.22049e-50
1.22049e-50
1.22049e-50
4.75528e-50
4.75528e-50
4.75528e-50
4.75528e-50
1.7801e-49
1.7801e-49
1.7801e-49
1.7801e-49
6.40238e-49
6.40238e-49
6.40238e-49
6.40238e-49
2.21241e-48
2.21241e-48
2.21241e-48
2.21241e-48
7.34547e-48
7.34547e-48
7.34547e-48
7.34547e-48
2.34316e-47
2.34316e-47
2.34316e-47
2.34316e-47
7.18144e-47
7.18144e-47
7.18144e-47
7.18144e-47
2.1147e-46
2.1147e-46
2.1147e-46
2.1147e-46
5.98295e-46
5.98295e-46
5.98295e-46
5.98295e-46
1.62634e-45
1.62634e-45
1.62634e-45
1.62634e-45
4.24749e-45
4.24749e-45
4.24749e-45
4.24749e-45
1.06582e-44
1.06582e-44
1.06582e-44
1.06582e-44
2.56958e-44
2.56958e-44
2.56958e-44
2.56958e-44
5.9521e-44
5.9521e-44
5.9521e-44
5.9521e-44
1.32466e-43
1.32466e-43
1.32466e-43
1.32466e-43
2.8325e-43
2.8325e-43
2.8325e-43
2.8325e-43
5.81918e-43
5.81918e-43
5.81918e-43
5.81918e-43
1.14863e-42
1.14863e-42
1.14863e-42
1.14863e-42
2.17836e-42
2.17836e-42
2.17836e-42
2.17836e-42
3.96924e-42
3.96924e-42
3.96924e-42
3.96924e-42
6.94883e-42
6.94883e-42
6.94883e-42
6.94883e-42
1.16881e-41
1.16881e-41
1.16881e-41
1.16881e-41
1.88889e-41
1.88889e-41
1.88889e-41
1.88889e-41
2.93289e-41
2.93289e-41
2.93289e-41
2.93289e-41
4.37536e-41
4.37536e-41
4.37536e-41
4.37536e-41
6.27133e-41
6.27133e-41
6.27133e-41
6.27133e-41
8.63643e-41
8.63643e-41
8.63643e-41
8.63643e-41
1.14271e-40
1.14271e-40
1.14271e-40
1.14271e-40
1.45267e-40
1.45267e-40
1.45267e-40
1.45267e-40
1.7743e-40
1.7743e-40
1.7743e-40
1.7743e-40
2.08216e-40
2.08216e-40
2.08216e-40
2.08216e-40
2.34762e-40
2.34762e-40
2.34762e-40
2.34762e-40
2.54315e-40
2.54315e-40
2.54315e-40
2.54315e-40
2.64694e-40
2.64694e-40
2.64694e-40
2.64694e-40
2.64694e-40
2.64694e-40
2.64694e-40
2.64694e-40
2.54315e-40
2.54315e-40
2.54315e-40
2.54315e-40
2.34762e-40
2.34762e-40
2.34762e-40
2.34762e-40
2.08216e-40
2.08216e-40
2.08216e-40
2.08216e-40
1.7743e-40
1.7743e-40
1.7743e-40
1.7743e-40
1.45267e-40
1.45267e-40
1.45267e-40
1.45267e-40
1.14271e-40
1.14271e-40
1.14271e-40
1.14271e-40
8.63643e-41
8.63643e-41
8.63643e-41
8.63643e-41
6.27133e-41
6.27133e-41
6.27133e-41
6.27133e-41
4.37536e-41
4.37536e-41
4.37536e-41
4.37536e-41
2.93289e-41
2.93289e-41
2.93289e-41
2.93289e-41
1.88889e-41
1.88889e-41
1.88889e-41
1.88889e-41
1.16881e-41
1.16881e-41
1.16881e-41
1.16881e-41
6.94883e-42
6.94883e-42
6.94883e-42
6.94883e-42
3.96924e-42
3.96924e-42
3.96924e-42
3.96924e-42
2.17836e-42
2.17836e-42
2.17836e-42
2.17836e-42
1.14863e-42
1.14863e-42
1.14863e-42
1.14863e-42
5.81918e-43
5.81918e-43
5.81918e-43
5.81918e-43
2.8325e-43
2.8325e-43
2.8325e-43
2.8325e-43
1.32466e-43
1.32466e-43
1.32466e-43
1.32466e-43
5.9521e-44
5.9521e-44
5.9521e-44
5.9521e-44
2.56958e-44
2.56958e-44
2.56958e-44
2.56958e-44
1.06582e-44
1.06582e-44
1.06582e-44
1.06582e-44
4.24749e-45
4.24749e-45
4.24749e-45
4.24749e-45
1.62634e-45
1.62634e-45
1.62634e-45
1.62634e-45
5.98295e-46
5.98295e-46
5.98295e-46
5.98295e-46
2.1147e-46
2.1147e-46
2.1147e-46
2.1147e-46
7.18144e-47
7.18144e-47
7.18144e-47
7.18144e-47
2.34316e-47
2.34316e-47
2.34316e-47
2.34316e-47
7.34547e-48
7.34547e-48
7.34547e-48
7.34547e-48
4.30334e-81
4.30334e-81
4.30334e-81
4.30334e-81
6.79922e-80
6.79922e-80
6.79922e-80
6.79922e-80
1.03214e-78
1.03214e-78
1.03214e-78
1.03214e-78
1.50539e-77
1.50539e-77
1.50539e-77
1.50539e-77
2.10953e-76
2.10953e-76
2.10953e-76
2.10953e-76
2.84022e-75
2.84022e-75
2.84022e-75
2.84022e-75
3.67406e-74
3.67406e-74
3.67406e-74
3.67406e-74
4.56634e-73
4.56634e-73
4.56634e-73
4.56634e-73
5.45279e-72
5.45279e-72
5.45279e-72
5.45279e-72
6.256e-71
6.256e-71
6.256e-71
6.256e-71
6.8961e-70
6.8961e-70
6.8961e-70
6.8961e-70
7.30363e-69
7.30363e-69
7.30363e-69
7.30363e-69
7.43194e-68
7.43194e-68
7.43194e-68
7.43194e-68
7.26597e-67
7.26597e-67
7.26597e-67
7.26597e-67
6.82516e-66
6.82516e-66
6.82516e-66
6.82516e-66
6.15972e-65
6.15972e-65
6.15972e-65
6.15972e-65
5.34118e-64
5.34118e-64
5.34118e-64
5.34118e-64
4.44981e-63
4.44981e-63
4.44981e-63
4.44981e-63
3.56183e-62
3.56183e-62
3.56183e-62
3.56183e-62
2.73927e-61
2.73927e-61
2.73927e-61
2.73927e-61
2.02406e-60
2.02406e-60
2.02406e-60
2.02406e-60
1.43695e-59
1.43695e-59
1.43695e-59
1.43695e-59
9.80135e-59
9.80135e-59
9.80135e-59
9.80135e-59
6.42332e-58
6.42332e-58
6.42332e-58
6.42332e-58
4.04447e-57
4.04447e-57
4.04447e-57
4.04447e-57
2.44676e-56
2.44676e-56
2.44676e-56
2.44676e-56
1.42216e-55
1.42216e-55
1.42216e-55
1.42216e-55
7.94212e-55
7.94212e-55
7.94212e-55
7.94212e-55
4.26139e-54
4.26139e-54
4.26139e-54
4.26139e-54
2.19682e-53
2.19682e-53
2.19682e-53
2.19682e-53
1.08809e-52
1.08809e-52
1.08809e-52
1.08809e-52
5.17803e-52
5.17803e-52
5.17803e-52
5.17803e-52
2.36751e-51
2.36751e-51
2.36751e-51
2.36751e-51
1.04004e-50
1.04004e-50
1.04004e-50
1.04004e-50
4.38967e-50
4.38967e-50
4.38967e-50
4.38967e-50
1.7801e-49
1.7801e-49
1.7801e-49
1.7801e-49
6.93561e-49
6.93561e-49
6.93561e-49
6.93561e-49
2.59629e-48
2.59629e-48
2.59629e-48
2.59629e-48
9.33793e-48
9.33793e-48
9.33793e-48
9.33793e-48
3.22683e-47
3.22683e-47
3.22683e-47
3.22683e-47
1.07134e-46
1.07134e-46
1.07134e-46
1.07134e-46
3.41752e-46
3.41752e-46
3.41752e-46
3.41752e-46
1.04742e-45
1.04742e-45
1.04742e-45
1.04742e-45
3.08431e-45
3.08431e-45
3.08431e-45
3.08431e-45
8.72619e-45
8.72619e-45
8.72619e-45
8.72619e-45
2.37203e-44
2.37203e-44
2.37203e-44
2.37203e-44
6.19501e-44
6.19501e-44
6.19501e-44
6.19501e-44
1.55451e-43
1.55451e-43
1.55451e-43
1.55451e-43
3.74776e-43
3.74776e-43
3.74776e-43
3.74776e-43
8.68119e-43
8.68119e-43
8.68119e-43
8.68119e-43
1.93204e-42
1.93204e-42
1.93204e-42
1.93204e-42
4.13122e-42
4.13122e-42
4.13122e-42
4.13122e-42
8.48733e-42
8.48733e-42
8.48733e-42
8.48733e-42
1.67529e-41
1.67529e-41
1.67529e-41
1.67529e-41
3.17716e-41
3.17716e-41
3.17716e-41
3.17716e-41
5.78917e-41
5.78917e-41
5.78917e-41
5.78917e-41
1.01349e-40
1.01349e-40
1.01349e-40
1.01349e-40
1.70472e-40
1.70472e-40
1.70472e-40
1.70472e-40
2.75496e-40
2.75496e-40
2.75496e-40
2.75496e-40
4.27765e-40
4.27765e-40
4.27765e-40
4.27765e-40
6.3815e-40
6.3815e-40
6.3815e-40
6.3815e-40
9.1468e-40
9.1468e-40
9.1468e-40
9.1468e-40
1.25963e-39
1.25963e-39
1.25963e-39
1.25963e-39
1.66666e-39
1.66666e-39
1.66666e-39
1.66666e-39
2.11873e-39
2.11873e-39
2.11873e-39
2.11873e-39
2.58783e-39
2.58783e-39
2.58783e-39
2.58783e-39
3.03684e-39
3.03684e-39
3.03684e-39
3.03684e-39
3.42403e-39
3.42403e-39
3.42403e-39
3.42403e-39
3.70921e-39
3.70921e-39
3.70921e-39
3.70921e-39
3.86058e-39
3.86058e-39
3.86058e-39
3.86058e-39
3.86058e-39
3.86058e-39
3.86058e-39
3.86058e-39
3.70921e-39
3.70921e-39
3.70921e-39
3.70921e-39
3.42403e-39
3.42403e-39
3.42403e-39
3.42403e-39
3.03684e-39
3.03684e-39
3.03684e-39
3.03684e-39
2.58783e-39
2.58783e-39
2.58783e-39
2.58783e-39
2.11873e-39
2.11873e-39
2.11873e-39
2.11873e-39
1.66666e-39
1.66666e-39
1.66666e-39
1.66666e-39
1.25963e-39
1.25963e-39
1.25963e-39
1.25963e-39
9.1468e-40
9.1468e-40
9.1468e-40
9.1468e-40
6.3815e-40
6.3815e-40
6.3815e-40
6.3815e-40
4.27765e-40
4.27765e-40
4.27765e-40
4.27765e-40
2.75496e-40
2.75496e-40
2.75496e-40
2.75496e-40
1.70472e-40
1.70472e-40
1.70472e-40
1.70472e-40
1.01349e-40
1.01349e-40
1.01349e-40
1.01349e-40
5.78917e-41
5.78917e-41
5.78917e-41
5.78917e-41
3.17716e-41
3.17716e-41
3.17716e-41
3.17716e-41
1.67529e-41
1.67529e-41
1.67529e-41
1.67529e-41
8.48733e-42
8.48733e-42
8.48733e-42
8.48733e-42
4.13122e-42
4.13122e-42
4.13122e-42
4.13122e-42
1.93204e-42
1.93204e-42
1.93204e-42
1.93204e-42
8.68119e-43
8.68119e-43
8.68119e-43
8.68119e-43
3.74776e-43
3.74776e-43
3.74776e-43
3.74776e-43
1.55451e-43
1.55451e-43
1.55451e-43
1.55451e-43
6.19501e-44
6.19501e-44
6.19501e-44
6.19501e-44
2.37203e-44
2.37203e-44
2.37203e-44
2.37203e-44
8.72619e-45
8.72619e-45
8.72619e-45
8.72619e-45
3.08431e-45
3.08431e-45
3.08431e-45
3.08431e-45
1.04742e-45
1.04742e-45
1.04742e-45
1.04742e-45
3.41752e-46
3.41752e-46
3.41752e-46
3.41752e-46
1.07134e-46
1.07134e-46
1.07134e-46
1.07134e-46
6.03036e-80
6.03036e-80
6.03036e-80
6.03036e-80
9.52788e-79
9.52788e-79
9.52788e-79
9.52788e-79
1.44636e-77
1.44636e-77
1.44636e-77
1.44636e-77
2.10953e-76
2.10953e-76
2.10953e-76
2.10953e-76
2.95613e-75
2.95613e-75
2.95613e-75
2.95613e-75
3.98006e-74
3.98006e-74
3.98006e-74
3.98006e-74
5.14853e-73
5.14853e-73
5.14853e-73
5.14853e-73
6.3989e-72
6.3989e-72
6.3989e-72
6.3989e-72
7.6411e-71
7.6411e-71
7.6411e-71
7.6411e-71
8.76667e-70
8.76667e-70
8.76667e-70
8.76667e-70
9.66365e-69
9.66365e-69
9.66365e-69
9.66365e-69
1.02347e-67
1.02347e-67
1.02347e-67
1.02347e-67
1.04145e-66
1.04145e-66
1.04145e-66
1.04145e-66
1.01819e-65
1.01819e-65
1.01819e-65
1.01819e-65
9.56424e-65
9.56424e-65
9.56424e-65
9.56424e-65
8.63174e-64
8.63174e-64
8.63174e-64
8.63174e-64
7.4847e-63
7.4847e-63
7.4847e-63
7.4847e-63
6.23561e-62
6.23561e-62
6.23561e-62
6.23561e-62
4.99127e-61
4.99127e-61
4.99127e-61
4.99127e-61