# vtk DataFile Version 2.0
dg(1) output generated by Nextsim
ASCII
DATASET UNSTRUCTURED_GRID
FIELD FieldData 1
TIME 1 1 double
0
POINTS 40000 DOUBLE
0	0	0
0.01	0	0
0.01	0.01	0
0	0.01	0
0.01	0	0
0.02	0	0
0.02	0.01	0
0.01	0.01	0
0.02	0	0
0.03	0	0
0.03	0.01	0
0.02	0.01	0
0.03	0	0
0.04	0	0
0.04	0.01	0
0.03	0.01	0
0.04	0	0
0.05	0	0
0.05	0.01	0
0.04	0.01	0
0.05	0	0
0.06	0	0
0.06	0.01	0
0.05	0.01	0
0.06	0	0
0.07	0	0
0.07	0.01	0
0.06	0.01	0
0.07	0	0
0.08	0	0
0.08	0.01	0
0.07	0.01	0
0.08	0	0
0.09	0	0
0.09	0.01	0
0.08	0.01	0
0.09	0	0
0.1	0	0
0.1	0.01	0
0.09	0.01	0
0.1	0	0
0.11	0	0
0.11	0.01	0
0.1	0.01	0
0.11	0	0
0.12	0	0
0.12	0.01	0
0.11	0.01	0
0.12	0	0
0.13	0	0
0.13	0.01	0
0.12	0.01	0
0.13	0	0
0.14	0	0
0.14	0.01	0
0.13	0.01	0
0.14	0	0
0.15	0	0
0.15	0.01	0
0.14	0.01	0
0.15	0	0
0.16	0	0
0.16	0.01	0
0.15	0.01	0
0.16	0	0
0.17	0	0
0.17	0.01	0
0.16	0.01	0
0.17	0	0
0.18	0	0
0.18	0.01	0
0.17	0.01	0
0.18	0	0
0.19	0	0
0.19	0.01	0
0.18	0.01	0
0.19	0	0
0.2	0	0
0.2	0.01	0
0.19	0.01	0
0.2	0	0
0.21	0	0
0.21	0.01	0
0.2	0.01	0
0.21	0	0
0.22	0	0
0.22	0.01	0
0.21	0.01	0
0.22	0	0
0.23	0	0
0.23	0.01	0
0.22	0.01	0
0.23	0	0
0.24	0	0
0.24	0.01	0
0.23	0.01	0
0.24	0	0
0.25	0	0
0.25	0.01	0
0.24	0.01	0
0.25	0	0
0.26	0	0
0.26	0.01	0
0.25	0.01	0
0.26	0	0
0.27	0	0
0.27	0.01	0
0.26	0.01	0
0.27	0	0
0.28	0	0
0.28	0.01	0
0.27	0.01	0
0.28	0	0
0.29	0	0
0.29	0.01	0
0.28	0.01	0
0.29	0	0
0.3	0	0
0.3	0.01	0
0.29	0.01	0
0.3	0	0
0.31	0	0
0.31	0.01	0
0.3	0.01	0
0.31	0	0
0.32	0	0
0.32	0.01	0
0.31	0.01	0
0.32	0	0
0.33	0	0
0.33	0.01	0
0.32	0.01	0
0.33	0	0
0.34	0	0
0.34	0.01	0
0.33	0.01	0
0.34	0	0
0.35	0	0
0.35	0.01	0
0.34	0.01	0
0.35	0	0
0.36	0	0
0.36	0.01	0
0.35	0.01	0
0.36	0	0
0.37	0	0
0.37	0.01	0
0.36	0.01	0
0.37	0	0
0.38	0	0
0.38	0.01	0
0.37	0.01	0
0.38	0	0
0.39	0	0
0.39	0.01	0
0.38	0.01	0
0.39	0	0
0.4	0	0
0.4	0.01	0
0.39	0.01	0
0.4	0	0
0.41	0	0
0.41	0.01	0
0.4	0.01	0
0.41	0	0
0.42	0	0
0.42	0.01	0
0.41	0.01	0
0.42	0	0
0.43	0	0
0.43	0.01	0
0.42	0.01	0
0.43	0	0
0.44	0	0
0.44	0.01	0
0.43	0.01	0
0.44	0	0
0.45	0	0
0.45	0.01	0
0.44	0.01	0
0.45	0	0
0.46	0	0
0.46	0.01	0
0.45	0.01	0
0.46	0	0
0.47	0	0
0.47	0.01	0
0.46	0.01	0
0.47	0	0
0.48	0	0
0.48	0.01	0
0.47	0.01	0
0.48	0	0
0.49	0	0
0.49	0.01	0
0.48	0.01	0
0.49	0	0
0.5	0	0
0.5	0.01	0
0.49	0.01	0
0.5	0	0
0.51	0	0
0.51	0.01	0
0.5	0.01	0
0.51	0	0
0.52	0	0
0.52	0.01	0
0.51	0.01	0
0.52	0	0
0.53	0	0
0.53	0.01	0
0.52	0.01	0
0.53	0	0
0.54	0	0
0.54	0.01	0
0.53	0.01	0
0.54	0	0
0.55	0	0
0.55	0.01	0
0.54	0.01	0
0.55	0	0
0.56	0	0
0.56	0.01	0
0.55	0.01	0
0.56	0	0
0.57	0	0
0.57	0.01	0
0.56	0.01	0
0.57	0	0
0.58	0	0
0.58	0.01	0
0.57	0.01	0
0.58	0	0
0.59	0	0
0.59	0.01	0
0.58	0.01	0
0.59	0	0
0.6	0	0
0.6	0.01	0
0.59	0.01	0
0.6	0	0
0.61	0	0
0.61	0.01	0
0.6	0.01	0
0.61	0	0
0.62	0	0
0.62	0.01	0
0.61	0.01	0
0.62	0	0
0.63	0	0
0.63	0.01	0
0.62	0.01	0
0.63	0	0
0.64	0	0
0.64	0.01	0
0.63	0.01	0
0.64	0	0
0.65	0	0
0.65	0.01	0
0.64	0.01	0
0.65	0	0
0.66	0	0
0.66	0.01	0
0.65	0.01	0
0.66	0	0
0.67	0	0
0.67	0.01	0
0.66	0.01	0
0.67	0	0
0.68	0	0
0.68	0.01	0
0.67	0.01	0
0.68	0	0
0.69	0	0
0.69	0.01	0
0.68	0.01	0
0.69	0	0
0.7	0	0
0.7	0.01	0
0.69	0.01	0
0.7	0	0
0.71	0	0
0.71	0.01	0
0.7	0.01	0
0.71	0	0
0.72	0	0
0.72	0.01	0
0.71	0.01	0
0.72	0	0
0.73	0	0
0.73	0.01	0
0.72	0.01	0
0.73	0	0
0.74	0	0
0.74	0.01	0
0.73	0.01	0
0.74	0	0
0.75	0	0
0.75	0.01	0
0.74	0.01	0
0.75	0	0
0.76	0	0
0.76	0.01	0
0.75	0.01	0
0.76	0	0
0.77	0	0
0.77	0.01	0
0.76	0.01	0
0.77	0	0
0.78	0	0
0.78	0.01	0
0.77	0.01	0
0.78	0	0
0.79	0	0
0.79	0.01	0
0.78	0.01	0
0.79	0	0
0.8	0	0
0.8	0.01	0
0.79	0.01	0
0.8	0	0
0.81	0	0
0.81	0.01	0
0.8	0.01	0
0.81	0	0
0.82	0	0
0.82	0.01	0
0.81	0.01	0
0.82	0	0
0.83	0	0
0.83	0.01	0
0.82	0.01	0
0.83	0	0
0.84	0	0
0.84	0.01	0
0.83	0.01	0
0.84	0	0
0.85	0	0
0.85	0.01	0
0.84	0.01	0
0.85	0	0
0.86	0	0
0.86	0.01	0
0.85	0.01	0
0.86	0	0
0.87	0	0
0.87	0.01	0
0.86	0.01	0
0.87	0	0
0.88	0	0
0.88	0.01	0
0.87	0.01	0
0.88	0	0
0.89	0	0
0.89	0.01	0
0.88	0.01	0
0.89	0	0
0.9	0	0
0.9	0.01	0
0.89	0.01	0
0.9	0	0
0.91	0	0
0.91	0.01	0
0.9	0.01	0
0.91	0	0
0.92	0	0
0.92	0.01	0
0.91	0.01	0
0.92	0	0
0.93	0	0
0.93	0.01	0
0.92	0.01	0
0.93	0	0
0.94	0	0
0.94	0.01	0
0.93	0.01	0
0.94	0	0
0.95	0	0
0.95	0.01	0
0.94	0.01	0
0.95	0	0
0.96	0	0
0.96	0.01	0
0.95	0.01	0
0.96	0	0
0.97	0	0
0.97	0.01	0
0.96	0.01	0
0.97	0	0
0.98	0	0
0.98	0.01	0
0.97	0.01	0
0.98	0	0
0.99	0	0
0.99	0.01	0
0.98	0.01	0
0.99	0	0
1	0	0
1	0.01	0
0.99	0.01	0
0	0.01	0
0.01	0.01	0
0.01	0.02	0
0	0.02	0
0.01	0.01	0
0.02	0.01	0
0.02	0.02	0
0.01	0.02	0
0.02	0.01	0
0.03	0.01	0
0.03	0.02	0
0.02	0.02	0
0.03	0.01	0
0.04	0.01	0
0.04	0.02	0
0.03	0.02	0
0.04	0.01	0
0.05	0.01	0
0.05	0.02	0
0.04	0.02	0
0.05	0.01	0
0.06	0.01	0
0.06	0.02	0
0.05	0.02	0
0.06	0.01	0
0.07	0.01	0
0.07	0.02	0
0.06	0.02	0
0.07	0.01	0
0.08	0.01	0
0.08	0.02	0
0.07	0.02	0
0.08	0.01	0
0.09	0.01	0
0.09	0.02	0
0.08	0.02	0
0.09	0.01	0
0.1	0.01	0
0.1	0.02	0
0.09	0.02	0
0.1	0.01	0
0.11	0.01	0
0.11	0.02	0
0.1	0.02	0
0.11	0.01	0
0.12	0.01	0
0.12	0.02	0
0.11	0.02	0
0.12	0.01	0
0.13	0.01	0
0.13	0.02	0
0.12	0.02	0
0.13	0.01	0
0.14	0.01	0
0.14	0.02	0
0.13	0.02	0
0.14	0.01	0
0.15	0.01	0
0.15	0.02	0
0.14	0.02	0
0.15	0.01	0
0.16	0.01	0
0.16	0.02	0
0.15	0.02	0
0.16	0.01	0
0.17	0.01	0
0.17	0.02	0
0.16	0.02	0
0.17	0.01	0
0.18	0.01	0
0.18	0.02	0
0.17	0.02	0
0.18	0.01	0
0.19	0.01	0
0.19	0.02	0
0.18	0.02	0
0.19	0.01	0
0.2	0.01	0
0.2	0.02	0
0.19	0.02	0
0.2	0.01	0
0.21	0.01	0
0.21	0.02	0
0.2	0.02	0
0.21	0.01	0
0.22	0.01	0
0.22	0.02	0
0.21	0.02	0
0.22	0.01	0
0.23	0.01	0
0.23	0.02	0
0.22	0.02	0
0.23	0.01	0
0.24	0.01	0
0.24	0.02	0
0.23	0.02	0
0.24	0.01	0
0.25	0.01	0
0.25	0.02	0
0.24	0.02	0
0.25	0.01	0
0.26	0.01	0
0.26	0.02	0
0.25	0.02	0
0.26	0.01	0
0.27	0.01	0
0.27	0.02	0
0.26	0.02	0
0.27	0.01	0
0.28	0.01	0
0.28	0.02	0
0.27	0.02	0
0.28	0.01	0
0.29	0.01	0
0.29	0.02	0
0.28	0.02	0
0.29	0.01	0
0.3	0.01	0
0.3	0.02	0
0.29	0.02	0
0.3	0.01	0
0.31	0.01	0
0.31	0.02	0
0.3	0.02	0
0.31	0.01	0
0.32	0.01	0
0.32	0.02	0
0.31	0.02	0
0.32	0.01	0
0.33	0.01	0
0.33	0.02	0
0.32	0.02	0
0.33	0.01	0
0.34	0.01	0
0.34	0.02	0
0.33	0.02	0
0.34	0.01	0
0.35	0.01	0
0.35	0.02	0
0.34	0.02	0
0.35	0.01	0
0.36	0.01	0
0.36	0.02	0
0.35	0.02	0
0.36	0.01	0
0.37	0.01	0
0.37	0.02	0
0.36	0.02	0
0.37	0.01	0
0.38	0.01	0
0.38	0.02	0
0.37	0.02	0
0.38	0.01	0
0.39	0.01	0
0.39	0.02	0
0.38	0.02	0
0.39	0.01	0
0.4	0.01	0
0.4	0.02	0
0.39	0.02	0
0.4	0.01	0
0.41	0.01	0
0.41	0.02	0
0.4	0.02	0
0.41	0.01	0
0.42	0.01	0
0.42	0.02	0
0.41	0.02	0
0.42	0.01	0
0.43	0.01	0
0.43	0.02	0
0.42	0.02	0
0.43	0.01	0
0.44	0.01	0
0.44	0.02	0
0.43	0.02	0
0.44	0.01	0
0.45	0.01	0
0.45	0.02	0
0.44	0.02	0
0.45	0.01	0
0.46	0.01	0
0.46	0.02	0
0.45	0.02	0
0.46	0.01	0
0.47	0.01	0
0.47	0.02	0
0.46	0.02	0
0.47	0.01	0
0.48	0.01	0
0.48	0.02	0
0.47	0.02	0
0.48	0.01	0
0.49	0.01	0
0.49	0.02	0
0.48	0.02	0
0.49	0.01	0
0.5	0.01	0
0.5	0.02	0
0.49	0.02	0
0.5	0.01	0
0.51	0.01	0
0.51	0.02	0
0.5	0.02	0
0.51	0.01	0
0.52	0.01	0
0.52	0.02	0
0.51	0.02	0
0.52	0.01	0
0.53	0.01	0
0.53	0.02	0
0.52	0.02	0
0.53	0.01	0
0.54	0.01	0
0.54	0.02	0
0.53	0.02	0
0.54	0.01	0
0.55	0.01	0
0.55	0.02	0
0.54	0.02	0
0.55	0.01	0
0.56	0.01	0
0.56	0.02	0
0.55	0.02	0
0.56	0.01	0
0.57	0.01	0
0.57	0.02	0
0.56	0.02	0
0.57	0.01	0
0.58	0.01	0
0.58	0.02	0
0.57	0.02	0
0.58	0.01	0
0.59	0.01	0
0.59	0.02	0
0.58	0.02	0
0.59	0.01	0
0.6	0.01	0
0.6	0.02	0
0.59	0.02	0
0.6	0.01	0
0.61	0.01	0
0.61	0.02	0
0.6	0.02	0
0.61	0.01	0
0.62	0.01	0
0.62	0.02	0
0.61	0.02	0
0.62	0.01	0
0.63	0.01	0
0.63	0.02	0
0.62	0.02	0
0.63	0.01	0
0.64	0.01	0
0.64	0.02	0
0.63	0.02	0
0.64	0.01	0
0.65	0.01	0
0.65	0.02	0
0.64	0.02	0
0.65	0.01	0
0.66	0.01	0
0.66	0.02	0
0.65	0.02	0
0.66	0.01	0
0.67	0.01	0
0.67	0.02	0
0.66	0.02	0
0.67	0.01	0
0.68	0.01	0
0.68	0.02	0
0.67	0.02	0
0.68	0.01	0
0.69	0.01	0
0.69	0.02	0
0.68	0.02	0
0.69	0.01	0
0.7	0.01	0
0.7	0.02	0
0.69	0.02	0
0.7	0.01	0
0.71	0.01	0
0.71	0.02	0
0.7	0.02	0
0.71	0.01	0
0.72	0.01	0
0.72	0.02	0
0.71	0.02	0
0.72	0.01	0
0.73	0.01	0
0.73	0.02	0
0.72	0.02	0
0.73	0.01	0
0.74	0.01	0
0.74	0.02	0
0.73	0.02	0
0.74	0.01	0
0.75	0.01	0
0.75	0.02	0
0.74	0.02	0
0.75	0.01	0
0.76	0.01	0
0.76	0.02	0
0.75	0.02	0
0.76	0.01	0
0.77	0.01	0
0.77	0.02	0
0.76	0.02	0
0.77	0.01	0
0.78	0.01	0
0.78	0.02	0
0.77	0.02	0
0.78	0.01	0
0.79	0.01	0
0.79	0.02	0
0.78	0.02	0
0.79	0.01	0
0.8	0.01	0
0.8	0.02	0
0.79	0.02	0
0.8	0.01	0
0.81	0.01	0
0.81	0.02	0
0.8	0.02	0
0.81	0.01	0
0.82	0.01	0
0.82	0.02	0
0.81	0.02	0
0.82	0.01	0
0.83	0.01	0
0.83	0.02	0
0.82	0.02	0
0.83	0.01	0
0.84	0.01	0
0.84	0.02	0
0.83	0.02	0
0.84	0.01	0
0.85	0.01	0
0.85	0.02	0
0.84	0.02	0
0.85	0.01	0
0.86	0.01	0
0.86	0.02	0
0.85	0.02	0
0.86	0.01	0
0.87	0.01	0
0.87	0.02	0
0.86	0.02	0
0.87	0.01	0
0.88	0.01	0
0.88	0.02	0
0.87	0.02	0
0.88	0.01	0
0.89	0.01	0
0.89	0.02	0
0.88	0.02	0
0.89	0.01	0
0.9	0.01	0
0.9	0.02	0
0.89	0.02	0
0.9	0.01	0
0.91	0.01	0
0.91	0.02	0
0.9	0.02	0
0.91	0.01	0
0.92	0.01	0
0.92	0.02	0
0.91	0.02	0
0.92	0.01	0
0.93	0.01	0
0.93	0.02	0
0.92	0.02	0
0.93	0.01	0
0.94	0.01	0
0.94	0.02	0
0.93	0.02	0
0.94	0.01	0
0.95	0.01	0
0.95	0.02	0
0.94	0.02	0
0.95	0.01	0
0.96	0.01	0
0.96	0.02	0
0.95	0.02	0
0.96	0.01	0
0.97	0.01	0
0.97	0.02	0
0.96	0.02	0
0.97	0.01	0
0.98	0.01	0
0.98	0.02	0
0.97	0.02	0
0.98	0.01	0
0.99	0.01	0
0.99	0.02	0
0.98	0.02	0
0.99	0.01	0
1	0.01	0
1	0.02	0
0.99	0.02	0
0	0.02	0
0.01	0.02	0
0.01	0.03	0
0	0.03	0
0.01	0.02	0
0.02	0.02	0
0.02	0.03	0
0.01	0.03	0
0.02	0.02	0
0.03	0.02	0
0.03	0.03	0
0.02	0.03	0
0.03	0.02	0
0.04	0.02	0
0.04	0.03	0
0.03	0.03	0
0.04	0.02	0
0.05	0.02	0
0.05	0.03	0
0.04	0.03	0
0.05	0.02	0
0.06	0.02	0
0.06	0.03	0
0.05	0.03	0
0.06	0.02	0
0.07	0.02	0
0.07	0.03	0
0.06	0.03	0
0.07	0.02	0
0.08	0.02	0
0.08	0.03	0
0.07	0.03	0
0.08	0.02	0
0.09	0.02	0
0.09	0.03	0
0.08	0.03	0
0.09	0.02	0
0.1	0.02	0
0.1	0.03	0
0.09	0.03	0
0.1	0.02	0
0.11	0.02	0
0.11	0.03	0
0.1	0.03	0
0.11	0.02	0
0.12	0.02	0
0.12	0.03	0
0.11	0.03	0
0.12	0.02	0
0.13	0.02	0
0.13	0.03	0
0.12	0.03	0
0.13	0.02	0
0.14	0.02	0
0.14	0.03	0
0.13	0.03	0
0.14	0.02	0
0.15	0.02	0
0.15	0.03	0
0.14	0.03	0
0.15	0.02	0
0.16	0.02	0
0.16	0.03	0
0.15	0.03	0
0.16	0.02	0
0.17	0.02	0
0.17	0.03	0
0.16	0.03	0
0.17	0.02	0
0.18	0.02	0
0.18	0.03	0
0.17	0.03	0
0.18	0.02	0
0.19	0.02	0
0.19	0.03	0
0.18	0.03	0
0.19	0.02	0
0.2	0.02	0
0.2	0.03	0
[...]
POINT_DATA 40000
SCALARS dg1 DOUBLE 
LOOKUP_TABLE default
-7.33869e-83
-7.80539e-83
6.42856e-83
6.89526e-83
-9.4311e-82
-1.0359e-81
7.91648e-82
8.84435e-82
-1.25145e-80
-1.36248e-80
1.06329e-80
1.17432e-80
-1.60322e-79
-1.72815e-79
1.38099e-79
1.50592e-79
-1.98254e-78
-2.11335e-78
1.73408e-78
1.8649e-78
-2.36603e-77
-2.49117e-77
2.10476e-77
2.22989e-77
-2.72466e-76
-2.82995e-76
2.46884e-76
2.57412e-76
-3.02703e-75
-3.09743e-75
2.79796e-75
2.86835e-75
-3.24382e-74
-3.2657e-74
3.06297e-74
3.08485e-74
-3.35238e-73
-3.31597e-73
3.23808e-73
3.20167e-73
-3.34065e-72
-3.24201e-72
3.30493e-72
3.20629e-72
-3.20933e-71
-3.05138e-71
3.25577e-71
3.09782e-71
-2.97186e-70
-2.76419e-70
3.09489e-70
2.88721e-70
-2.65217e-69
-2.40957e-69
2.83807e-69
2.59547e-69
-2.28066e-68
-2.02082e-68
2.51001e-68
2.25017e-68
-1.88946e-67
-1.6302e-67
2.14039e-67
1.88114e-67
-1.50786e-66
-1.26473e-66
1.75941e-66
1.51628e-66
-1.15896e-65
-9.43431e-66
1.39379e-65
1.17826e-65
-8.57806e-65
-6.76534e-65
1.06385e-64
8.82582e-65
-6.11314e-64
-4.66281e-64
7.82225e-64
6.37192e-64
-4.19403e-63
-3.08813e-63
5.53933e-63
4.43342e-63
-2.76969e-62
-1.96488e-62
3.77724e-62
2.97243e-62
-1.76037e-61
-1.20082e-61
2.47975e-61
1.92019e-61
-1.0767e-60
-7.04712e-61
1.56705e-60
1.19506e-60
-6.33646e-60
-3.9704e-60
9.53085e-60
7.1648e-60
-3.58763e-59
-2.14698e-59
5.5782e-59
4.13755e-59
-1.954e-58
-1.11396e-58
3.14131e-58
2.30126e-58
-1.02364e-57
-5.54388e-58
1.70187e-57
1.23263e-57
-5.1573e-57
-2.64553e-57
8.86946e-57
6.35769e-57
-2.49864e-56
-1.21001e-56
4.44604e-56
3.15741e-56
-1.16397e-55
-5.30211e-56
2.14346e-55
1.5097e-55
-5.213e-55
-2.22462e-55
9.93764e-55
6.94926e-55
-2.24437e-54
-8.9319e-55
4.43042e-54
3.07924e-54
-9.28782e-54
-3.42913e-54
1.89918e-53
1.31331e-53
-3.694e-53
-1.25771e-53
7.82747e-53
5.39118e-53
-1.41187e-52
-4.40189e-53
3.10157e-52
2.12988e-52
-5.18513e-52
-1.46801e-52
1.18147e-51
8.09757e-52
-1.82953e-51
-4.65612e-52
4.32637e-51
2.96245e-51
-6.20125e-51
-1.40092e-51
1.52287e-50
1.04284e-50
-2.01895e-50
-3.98411e-51
5.15259e-50
3.53205e-50
-6.31281e-50
-1.06533e-50
1.67568e-49
1.15094e-49
-1.89542e-49
-2.65639e-50
5.23779e-49
3.60801e-49
-5.46401e-49
-6.09066e-50
1.57355e-48
1.08806e-48
-1.51206e-48
-1.25014e-49
4.54335e-48
3.15631e-48
-4.01607e-48
-2.1562e-49
1.26075e-47
8.80701e-48
-1.02353e-47
-2.51474e-49
3.36206e-47
2.36367e-47
-2.50304e-47
1.37203e-49
8.61748e-47
6.10072e-47
-5.86437e-47
1.99637e-48
2.12107e-46
1.51467e-46
-1.31809e-46
9.85603e-48
5.02628e-46
3.60963e-46
-2.77524e-46
2.68482e-47
1.13083e-45
8.26462e-46
-5.48079e-46
2.17695e-47
2.33744e-45
1.76759e-45
-1.09536e-45
4.433e-47
4.59369e-45
3.45401e-45
-2.15458e-45
5.11927e-47
8.76886e-45
6.56309e-45
-4.15775e-45
-3.00304e-47
1.62453e-44
1.21176e-44
-7.8413e-45
-3.80042e-46
2.91824e-44
2.17211e-44
-1.43969e-44
-1.38342e-45
5.07804e-44
3.77669e-44
-2.56418e-44
-3.76792e-45
8.55118e-44
6.3638e-44
-4.41862e-44
-8.79428e-45
1.39247e-43
1.03855e-43
-8.173e-44
-2.39787e-44
2.3292e-43
1.75168e-43
-1.27326e-42
-8.49617e-43
2.38348e-42
1.95983e-42
-7.28187e-41
-5.59808e-41
1.36274e-40
1.19436e-40
-1.87793e-39
-1.79204e-39
3.69572e-39
3.60983e-39
-3.1909e-39
-4.14932e-39
6.83709e-39
7.79551e-39
1.28581e-37
1.22392e-37
-2.52202e-37
-2.46013e-37
5.24097e-37
5.01194e-37
-1.02867e-36
-1.00576e-36
1.92059e-36
1.84907e-36
-3.77491e-36
-3.70339e-36
5.31818e-36
5.32162e-36
-1.0545e-35
-1.05484e-35
-7.62231e-36
-7.3727e-36
1.49809e-35
1.47313e-35
-1.97693e-35
-1.95911e-35
3.90581e-35
3.888e-35
-1.61336e-37
-1.61568e-37
3.20244e-37
3.20477e-37
2.8796e-37
2.85219e-37
-5.69828e-37
-5.67088e-37
3.85328e-39
3.81115e-39
-7.64122e-39
-7.59908e-39
-2.23148e-41
-2.23732e-41
4.44034e-41
4.44618e-41
-9.15215e-43
-1.36911e-42
1.87717e-42
2.33107e-42
-6.99779e-43
-1.25284e-42
1.46425e-42
2.01732e-42
-5.22343e-43
-1.13173e-42
1.12825e-42
1.73764e-42
-3.618e-43
-9.82742e-43
8.22455e-43
1.4434e-42
-2.28459e-43
-8.20391e-43
5.64214e-43
1.15615e-42
-1.2682e-43
-6.58418e-43
3.6128e-43
8.92879e-43
-5.62179e-44
-5.08025e-43
2.12959e-43
6.64766e-43
-1.23187e-44
-3.76842e-43
1.1254e-43
4.77064e-43
1.10867e-44
-2.68726e-43
5.01339e-44
3.29946e-43
2.04779e-44
-1.84208e-43
1.51971e-44
2.19883e-43
2.14916e-44
-1.21375e-43
-1.69742e-45
1.41169e-43
1.83723e-44
-7.68667e-44
-7.94169e-45
8.72974e-44
1.38995e-44
-4.67848e-44
-8.69789e-45
5.19864e-44
9.61652e-45
-2.73649e-44
-7.17442e-45
2.9807e-44
6.1848e-45
-1.53806e-44
-5.11409e-45
1.64513e-44
3.73239e-45
-8.30636e-45
-3.29994e-45
8.7388e-45
2.1259e-45
-4.30997e-45
-1.96914e-45
4.46673e-45
1.14734e-45
-2.14851e-45
-1.09931e-45
2.19653e-45
5.8833e-46
-1.02889e-45
-5.78214e-46
1.03901e-45
2.8721e-46
-4.73314e-46
-2.87847e-46
4.72677e-46
1.33683e-46
-2.09148e-46
-1.3605e-46
2.06781e-46
5.93954e-47
-8.8769e-47
-6.11892e-47
8.69751e-47
2.52131e-47
-3.61874e-47
-2.62311e-47
3.51693e-47
1.02312e-47
-1.4166e-47
-1.07287e-47
1.36685e-47
3.98668e-48
-5.34409e-48
-4.21475e-48
5.11603e-48
1.40226e-48
-1.8438e-48
-1.46176e-48
1.7843e-48
7.61658e-49
-8.77893e-49
-8.54432e-49
7.85119e-49
-1.00845e-81
-1.04962e-81
8.92377e-82
9.33546e-82
-1.29027e-80
-1.39552e-80
1.11207e-80
1.21731e-80
-1.71777e-79
-1.83908e-79
1.501e-79
1.62231e-79
-2.20768e-78
-2.33679e-78
1.9589e-78
2.08801e-78
-2.73849e-77
-2.86216e-77
2.47134e-77
2.59502e-77
-3.27804e-76
-3.3785e-76
3.01337e-76
3.11384e-76
-3.78587e-75
-3.84248e-75
3.55035e-75
3.60696e-75
-4.21781e-74
-4.20977e-74
4.04093e-74
4.03288e-74
-4.53213e-73
-4.44192e-73
4.44194e-73
4.35174e-73
-4.69605e-72
-4.51289e-72
4.71447e-72
4.5313e-72
-4.69143e-71
-4.41384e-71
4.82999e-71
4.5524e-71
-4.51796e-70
-4.15495e-70
4.77524e-70
4.41223e-70
-4.19347e-69
-3.76367e-69
4.55477e-69
4.12497e-69
-3.75082e-68
-3.27993e-68
4.19029e-68
3.7194e-68
-3.23244e-67
-2.74938e-67
3.71721e-67
3.23415e-67
-2.6836e-66
-2.21632e-66
3.17891e-66
2.71163e-66
-2.14596e-65
-1.71779e-65
2.62012e-65
2.19195e-65
-1.65263e-64
-1.27983e-64
2.08088e-64
1.70808e-64
-1.22552e-63
-9.16415e-64
1.59207e-63
1.28297e-63
-8.74967e-63
-6.30509e-63
1.17321e-62
9.28753e-63
-6.01355e-62
-4.16728e-62
8.32537e-62
6.47911e-62
-3.97814e-61
-2.64529e-61
5.68809e-61
4.35525e-61
-2.53269e-60
-1.61231e-60
3.74102e-60
2.82064e-60
-1.55162e-59
-9.4332e-60
2.36814e-59
1.75984e-59
-9.14609e-59
-5.29645e-59
1.44262e-58
1.05766e-58
-5.18658e-58
-2.85293e-58
8.45605e-58
6.1224e-58
-2.82926e-57
-1.47376e-57
4.76869e-57
3.41319e-57
-1.48443e-56
-7.29847e-57
2.58699e-56
1.83241e-56
-7.49029e-56
-3.46349e-56
1.34993e-55
9.47253e-56
-3.63446e-55
-1.5742e-55
6.77496e-55
4.7147e-55
-1.69565e-54
-6.84882e-55
3.26994e-54
2.25917e-54
-7.60585e-54
-2.85027e-54
1.51767e-53
1.04212e-53
-3.27963e-53
-1.13373e-53
6.77311e-53
4.62721e-53
-1.35933e-52
-4.30574e-53
2.9063e-52
1.97755e-52
-5.41505e-52
-1.55934e-52
1.19897e-51
8.134e-52
-2.07307e-51
-5.3762e-52
4.7552e-51
3.21975e-51
-7.62629e-51
-1.76077e-51
1.813e-50
1.22645e-50
-2.69559e-50
-5.46166e-51
6.64474e-50
4.49531e-50
-9.15353e-50
-1.59765e-50
2.34093e-49
1.58534e-49
-2.98585e-49
-4.37905e-50
7.92708e-49
5.37913e-49
-9.35495e-49
-1.113e-49
2.58011e-48
1.75591e-48
-2.81485e-48
-2.57495e-49
8.07141e-48
5.51406e-48
-8.133e-48
-5.218e-49
2.4268e-47
1.66568e-47
-2.25615e-47
-8.34839e-49
7.01266e-47
4.83999e-47
-6.00816e-47
-5.99949e-49
1.94753e-46
1.35271e-46
-1.53566e-46
2.59654e-48
5.19789e-46
3.63627e-46
-3.76654e-46
1.65054e-47
1.33324e-45
9.4008e-46
-8.86009e-46
6.28224e-47
3.28592e-45
2.33709e-45
-1.99457e-45
2.01692e-46
7.77894e-45
5.58267e-45
-4.24805e-45
6.20285e-46
1.7636e-44
1.27676e-44
-8.16192e-45
1.66732e-45
3.74109e-44
2.75816e-44
-1.47442e-44
5.62643e-45
7.57603e-44
5.53897e-44
-2.58018e-44
1.48246e-44
1.48778e-43
1.08151e-43
-4.37215e-44
3.41835e-44
2.82953e-43
2.05048e-43
-7.1678e-44
7.18467e-44
5.2051e-43
3.76986e-43
-1.13535e-43
1.40294e-43
9.25075e-43
6.71246e-43
-1.73354e-43
2.57198e-43
1.58666e-42
1.15611e-42
-2.15028e-43
4.71799e-43
2.56185e-42
1.87502e-42
7.35863e-42
5.90509e-42
-8.79925e-42
-7.34571e-42
7.18676e-40
5.05144e-40
-1.27479e-39
-1.06126e-39
3.4437e-38
2.63114e-38
-6.48437e-38
-5.67181e-38
7.19511e-37
6.87143e-37
-1.43391e-36
-1.40154e-36
8.31186e-37
1.24716e-36
-1.90287e-36
-2.31885e-36
-4.26309e-35
-4.04101e-35
8.46705e-35
8.24497e-35
-1.61012e-34
-1.53396e-34
3.20396e-34
3.12779e-34
-5.46908e-34
-5.25297e-34
1.09162e-33
1.07001e-33
-1.37465e-33
-1.38246e-33
2.77788e-33
2.78569e-33
1.90483e-33
1.83797e-33
-3.81002e-33
-3.74316e-33
4.56236e-33
4.53107e-33
-9.19844e-33
-9.16714e-33
4.42112e-35
4.45285e-35
-8.93191e-35
-8.96364e-35
-7.59931e-35
-7.54239e-35
1.53002e-34
1.52433e-34
-1.30401e-36
-1.29247e-36
2.6197e-36
2.60816e-36
1.03377e-38
1.02249e-38
-2.06621e-38
-2.05492e-38
4.08089e-41
3.28681e-41
-3.09038e-41
-2.29629e-41
7.49045e-42
-1.55056e-42
2.95251e-41
3.85661e-41
7.33582e-42
-2.48447e-42
2.29588e-41
3.27791e-41
6.83475e-42
-3.03628e-42
1.69667e-41
2.68378e-41
6.0693e-42
-3.21869e-42
1.188e-41
2.11679e-41
5.14393e-42
-3.09393e-42
7.84679e-42
1.60846e-41
4.16528e-42
-2.75297e-42
4.85662e-42
1.17749e-41
3.22505e-42
-2.29327e-42
2.78624e-42
8.30455e-42
2.38916e-42
-1.80072e-42
1.45284e-42
5.64272e-42
1.6943e-42
-1.33878e-42
6.60605e-43
3.69368e-42
1.15067e-42
-9.45318e-43
2.33235e-43
2.32922e-42
7.48636e-43
-6.35337e-43
3.08874e-44
1.41486e-42
4.66739e-43
-4.07092e-43
-4.60141e-44
8.27816e-43
2.78908e-43
-2.48987e-43
-6.14179e-44
4.66477e-43
1.59778e-43
-1.45504e-43
-5.21445e-44
2.53137e-43
8.77641e-44
-8.13041e-44
-3.67986e-44
1.3227e-43
4.623e-44
-4.34665e-44
-2.31558e-44
6.65406e-44
2.33556e-44
-2.22441e-44
-1.33758e-44
3.22239e-44
1.1318e-44
-1.09012e-44
-7.19899e-45
1.50202e-44
5.26137e-45
-5.1177e-45
-3.6413e-45
6.73777e-45
2.34649e-45
-2.30221e-45
-1.74039e-45
2.90831e-45
1.00406e-45
-9.92632e-46
-7.88913e-46
1.20778e-45
4.12248e-46
-4.10298e-46
-3.4004e-46
4.82506e-46
1.62402e-46
-1.62587e-46
-1.39592e-46
1.85396e-46
6.15393e-47
-6.19884e-47
-5.49357e-47
6.8592e-47
2.14987e-47
-2.15174e-47
-1.91045e-47
2.39117e-47
1.03955e-47
-1.09492e-47
-1.13602e-47
9.9846e-48
-1.40489e-80
-1.45384e-80
1.24218e-80
1.29114e-80
-1.79804e-79
-1.93834e-79
1.55598e-79
1.69627e-79
-2.39995e-78
-2.55948e-78
2.10723e-78
2.26676e-78
-3.09208e-77
-3.25822e-77
2.75905e-77
2.92518e-77
-3.84477e-76
-3.99772e-76
3.49187e-76
3.64483e-76
-4.61295e-75
-4.72662e-75
4.27081e-75
4.38448e-75
-5.33949e-74
-5.3839e-74
5.04676e-74
5.09117e-74
-5.96149e-73
-5.90683e-73
5.76046e-73
5.7058e-73
-6.419e-72
-6.24063e-72
6.34938e-72
6.17102e-72
-6.6644e-71
-6.34784e-71
6.75648e-71
6.43992e-71
-6.67054e-70
-6.21517e-70
6.93919e-70
6.48382e-70
-6.43566e-69
-5.85625e-69
6.87668e-69
6.29727e-69
-5.98392e-68
-5.30926e-68
6.5738e-68
5.89914e-68
-5.36127e-67
-4.63027e-67
6.06049e-67
5.3295e-67
-4.62774e-66
-3.88371e-66
5.38694e-66
4.64291e-66
-3.8479e-65
-3.13231e-65
4.61545e-65
3.89986e-65
-3.08152e-64
-2.42866e-64
3.81083e-64
3.15798e-64
-2.37645e-63
-1.80994e-63
3.03154e-63
2.46502e-63
-1.76463e-62
-1.29616e-62
2.323e-62
1.85453e-62
-1.26147e-61
-8.91767e-62
1.71433e-61
1.34462e-61
-8.68051e-61
-5.89309e-61
1.21818e-60
9.39442e-61
-5.74906e-60
-3.7396e-60
8.33355e-60
6.32409e-60
-3.66419e-59
-2.27816e-59
5.48749e-59
4.10146e-59
-2.24717e-58
-1.33198e-58
3.47758e-58
2.5624e-58
-1.32592e-57
-7.47195e-58
2.1207e-57
1.54198e-57
-7.52613e-57
-4.02017e-57
1.2443e-56
8.93703e-57
-4.10914e-56
-2.0738e-56
7.02359e-56
4.98825e-56
-2.15778e-55
-1.02523e-55
3.8136e-55
2.68105e-55
-1.08966e-54
-4.85499e-55
1.99163e-54
1.38747e-54
-5.29127e-54
-2.20105e-54
1.00032e-53
6.91302e-54
-2.47039e-53
-9.54668e-54
4.83162e-53
3.31589e-53
-1.10883e-52
-3.95829e-53
2.24404e-52
1.53104e-52
-4.78423e-52
-1.56736e-52
1.00213e-51
6.80444e-52
-1.9841e-51
-5.91965e-52
4.30275e-51
2.91062e-51
-7.90814e-51
-2.12914e-51
1.77611e-50
1.19821e-50
-3.02901e-50
-7.27755e-51
7.04811e-50
4.74686e-50
-1.1148e-49
-2.35722e-50
2.68864e-49
1.80957e-49
-3.94197e-49
-7.20593e-50
9.85897e-49
6.63759e-49
-1.33908e-48
-2.06646e-49
3.47497e-48
2.34254e-48
-4.36942e-48
-5.5057e-49
1.17727e-47
7.95386e-48
-1.36935e-47
-1.33992e-48
3.83347e-47
2.59811e-47
-4.12122e-47
-2.87843e-48
1.19974e-46
8.16402e-47
-1.19096e-46
-4.9984e-48
3.60867e-46
2.4677e-46
-3.30419e-46
-4.69361e-48
1.04319e-45
7.17466e-46
-8.79962e-46
1.18645e-47
2.89819e-45
2.00636e-45
-2.24914e-45
9.24843e-47
7.73794e-45
5.39631e-45
-5.51616e-45
3.798e-46
1.98544e-44
1.39584e-44
-1.29744e-44
1.25627e-45
4.89502e-44
3.47196e-44
-2.92081e-44
3.73559e-45
1.15928e-43
8.2984e-44
-6.22531e-44
1.07807e-44
2.6299e-43
1.89956e-43
-1.19983e-43
2.8013e-44
5.59142e-43
4.11146e-43
-2.17405e-43
8.92865e-44
1.13495e-42
8.28258e-43
-3.81217e-43
2.30206e-43
2.23258e-42
1.62116e-42
-6.46553e-43
5.25173e-43
4.25101e-42
3.07928e-42
-1.05964e-42
1.09721e-42
7.82579e-42
5.66895e-42
-1.67577e-42
2.13471e-42
1.39141e-41
1.01036e-41
-2.6832e-42
3.81204e-42
2.40604e-41
1.75652e-41
-3.99014e-41
-1.75489e-41
9.65537e-41
7.42011e-41
-4.66555e-39
-3.11151e-39
7.90118e-39
6.34714e-39
-3.30738e-37
-2.31345e-37
5.89346e-37
4.89954e-37
-1.28718e-35
-9.80558e-36
2.42628e-35
2.11966e-35
-2.26591e-34
-2.16841e-34
4.52695e-34
4.42945e-34
-1.76654e-34
-3.14575e-34
4.3237e-34
5.70292e-34
1.16174e-32
1.09863e-32
-2.30946e-32
-2.24635e-32
4.07165e-32
3.87098e-32
-8.11125e-32
-7.91058e-32
1.28448e-31
1.23257e-31
-2.56804e-31
-2.51613e-31
2.95489e-31
2.985e-31
-5.98977e-31
-6.01989e-31
-3.93466e-31
-3.7924e-31
7.88442e-31
7.74216e-31
-8.75347e-31
-8.71272e-31
1.76969e-30
1.76562e-30
-9.71769e-33
-9.83842e-33
1.97012e-32
1.98219e-32
1.60497e-32
1.59627e-32
-3.24051e-32
-3.23182e-32
3.316e-34
3.29368e-34
-6.68048e-34
-6.65815e-34
-3.3614e-36
-3.33343e-36
6.75663e-36
6.72866e-36
-1.54375e-38
-1.53942e-38
3.17145e-38
3.16712e-38
1.11817e-40
-1.87545e-41
4.46446e-40
5.77018e-40
1.08481e-40
-3.28576e-41
3.48793e-40
4.90132e-40
1.0043e-40
-4.11708e-41
2.58995e-40
4.00596e-40
8.86613e-41
-4.41435e-41
1.8254e-40
3.15345e-40
7.47338e-41
-4.26773e-41
1.21682e-40
2.39093e-40
6.02044e-41
-3.80835e-41
7.63187e-41
1.74607e-40
4.63866e-41
-3.17626e-41
4.46715e-41
1.22821e-40
3.42031e-41
-2.49444e-41
2.40666e-41
8.32141e-41
2.41464e-41
-1.8535e-41
1.16221e-41
5.43036e-41
1.63276e-41
-1.30738e-41
4.72975e-42
3.41311e-41
1.05782e-41
-8.7742e-42
1.30817e-42
2.06605e-41
6.568e-42
-5.61251e-42
-1.36429e-43
1.20441e-41
3.90918e-42
-3.42621e-42
-5.74349e-43
6.76103e-42
2.23074e-42
-1.99807e-42
-5.74371e-43
3.65444e-42
1.22066e-42
-1.11402e-42
-4.32927e-43
1.90176e-42
6.40592e-43
-5.94208e-43
-2.82075e-43
9.52725e-43
3.2245e-43
-3.03366e-43
-1.66396e-43
4.5942e-43
1.55698e-43
-1.48308e-43
-9.0785e-44
2.13221e-43
7.21249e-44
-6.94521e-44
-4.63463e-44
9.52307e-44
3.20556e-44
-3.11643e-44
-2.22942e-44
4.09257e-44
1.36701e-44
-1.34026e-44
-1.01514e-44
1.69213e-44
5.59391e-45
-5.5256e-45
-4.38915e-45
6.73036e-45
2.19646e-45
-2.18395e-45
-1.80564e-45
2.57477e-45
8.29472e-46
-8.30328e-46
-7.11447e-46
9.48354e-46
2.8943e-46
-2.88012e-46
-2.4773e-46
3.29711e-46
1.38584e-46
-1.45582e-46
-1.48554e-46
1.35613e-46
-1.87762e-79
-1.93025e-79
1.65969e-79
1.71231e-79
-2.40355e-78
-2.58076e-78
2.09084e-78
2.26806e-78
-3.2166e-77
-3.41458e-77
2.84131e-77
3.03929e-77
-4.15482e-76
-4.35493e-76
3.73264e-76
3.93275e-76
-5.1789e-75
-5.35275e-75
4.73936e-75
4.91321e-75
-6.22838e-74
-6.33909e-74
5.81472e-74
5.92542e-74
-7.22582e-73
-7.23158e-73
6.89186e-73
6.89762e-73
-8.08531e-72
-7.94512e-72
7.8892e-72
7.74901e-72
-8.72421e-71
-8.40493e-71
8.71975e-71
8.40047e-71
-9.07613e-70
-8.55933e-70
9.30324e-70
8.78644e-70
-9.1022e-69
-8.3893e-69
9.57869e-69
8.86579e-69
-8.79811e-68
-7.91225e-68
9.51489e-68
8.62904e-68
-8.19518e-67
-7.17913e-67
9.11619e-67
8.10013e-67
-7.35503e-66
-6.26541e-66
8.42212e-66
7.3325e-66
-6.35913e-65
-5.25826e-65
7.50101e-65
6.40015e-65
-5.29581e-64
-4.24286e-64
6.43879e-64
5.38583e-64
-4.24741e-63
-3.29082e-63
5.32566e-63
4.36907e-63
-3.28026e-62
-2.45293e-62
4.24358e-62
3.41624e-62
-2.43908e-61
-1.75671e-61
3.2568e-61
2.57443e-61
-1.74589e-60
-1.20852e-60
2.40693e-60
1.86957e-60
-1.20288e-59
-7.9842e-60
1.71267e-59
1.30821e-59
-7.976e-59
-5.06436e-59
1.17312e-58
8.81957e-59
-5.08925e-58
-3.08327e-58
7.734e-58
5.72802e-58
-3.12446e-57
-1.80119e-57
4.90675e-57
3.58348e-57
-1.84543e-56
-1.00931e-56
2.99538e-56
2.15927e-56
-1.0485e-55
-5.4231e-56
1.75924e-55
1.25305e-55
-5.72988e-55
-2.79284e-55
9.93943e-55
7.00239e-55
-3.01146e-54
-1.37789e-54
5.40152e-54
3.76796e-54
-1.522e-53
-6.50897e-54
2.82323e-53
1.95212e-53
-7.39636e-53
-2.9421e-53
1.4191e-52
9.73674e-53
-3.45572e-52
-1.27148e-52
6.85933e-52
4.67509e-52
-1.55214e-51
-5.24872e-52
3.18801e-51
2.16073e-51
-6.70124e-51
-2.06715e-51
1.42461e-50
9.61203e-51
-2.78076e-50
-7.75537e-51
6.12049e-50
4.11527e-50
-1.10895e-49
-2.76614e-50
2.52793e-49
1.69559e-49
-4.24968e-49
-9.35417e-50
1.00371e-48
6.72286e-49
-1.56477e-48
-2.98764e-49
3.83089e-48
2.56488e-48
-5.5354e-48
-8.96127e-49
1.40546e-47
9.4153e-48
-1.88106e-47
-2.50161e-48
4.95617e-47
3.32528e-47
-6.13988e-47
-6.39914e-48
1.67985e-46
1.12986e-46
-1.92473e-46
-1.45466e-47
5.47241e-46
3.69314e-46
-5.79398e-46
-2.72527e-47
1.71339e-45
1.16124e-45
-1.67464e-45
-3.1107e-47
5.15574e-45
3.51221e-45
-4.64662e-45
4.57019e-47
1.49099e-44
1.02176e-44
-1.23754e-44
4.73222e-46
4.1438e-44
2.85894e-44
-3.16303e-44
2.10888e-45
1.10676e-43
7.69365e-44
-7.75686e-44
7.39155e-45
2.84074e-43
1.99114e-43
-1.82421e-43
2.26632e-44
7.00614e-43
4.95529e-43
-4.10653e-43
6.41706e-44
1.65988e-42
1.18506e-42
-8.75802e-43
1.76969e-43
3.76782e-42
2.71505e-42
-1.69293e-42
4.47835e-43
8.02816e-42
5.8874e-42
-3.07626e-42
1.35971e-42
1.63322e-41
1.18963e-41
-5.40424e-42
3.43621e-42
3.21805e-41
2.33401e-41
-9.17285e-42
7.75878e-42
6.13448e-41
4.44132e-41
-1.5028e-41
1.61138e-41
1.13017e-40
8.18754e-41
-2.34574e-41
3.14459e-41
2.0069e-40
1.45787e-40
8.41363e-41
1.40861e-40
1.69331e-40
1.12606e-40
2.11033e-38
1.43158e-38
-3.27996e-38
-2.60122e-38
2.06583e-36
1.38236e-36
-3.47107e-36
-2.7876e-36
1.19149e-34
8.31513e-35
-2.12264e-34
-1.76266e-34
3.91774e-33
2.97483e-33
-7.392e-33
-6.44909e-33
5.96321e-32
5.71945e-32
-1.19443e-31
-1.17006e-31
3.08587e-32
6.79057e-32
-8.28004e-32
-1.19847e-31
-2.64028e-30
-2.49266e-30
5.25498e-30
5.10736e-30
-8.59137e-30
-8.15582e-30
1.71392e-29
1.67037e-29
-2.51988e-29
-2.41678e-29
5.0475e-29
4.94441e-29
-5.33362e-29
-5.41138e-29
1.08462e-28
1.0924e-28
6.79044e-29
6.54021e-29
-1.36352e-28
-1.3385e-28
1.40799e-28
1.40463e-28
-2.85486e-28
-2.85151e-28
1.7538e-30
1.78447e-30
-3.56826e-30
-3.59894e-30
-2.77691e-30
-2.76783e-30
5.62342e-30
5.61434e-30
-6.66485e-32
-6.63437e-32
1.3467e-31
1.34365e-31
8.15167e-34
8.10018e-34
-1.64313e-33
-1.63798e-33
4.80658e-36
4.76763e-36
-9.65415e-36
-9.6152e-36
1.36531e-39
-4.47049e-40
6.96635e-39
8.7787e-39
1.54542e-39
-4.12965e-40
5.08601e-39
7.04439e-39
1.42196e-39
-5.33881e-40
3.79258e-39
5.74843e-39
1.24825e-39
-5.80436e-40
2.68837e-39
4.51705e-39
1.04661e-39
-5.65149e-40
1.80625e-39
3.41801e-39
8.38927e-40
-5.06198e-40
1.14554e-39
2.49066e-39
6.43313e-40
-4.22945e-40
6.81504e-40
1.74776e-39
4.7219e-40
-3.32356e-40
3.76523e-40
1.18107e-39
3.31895e-40
-2.46912e-40
1.89771e-40
7.68579e-40
2.23476e-40
-1.74031e-40
8.41182e-41
4.81624e-40
1.4419e-40
-1.16662e-40
2.9763e-41
2.90615e-40
8.91709e-41
-7.45158e-41
5.16141e-42
1.68848e-40
5.28671e-41
-4.54121e-41
-3.82666e-42
9.44525e-41
3.00538e-41
-2.64338e-41
-5.62022e-42
5.08673e-41
1.63844e-41
-1.47086e-41
-4.72141e-42
2.63716e-41
8.56721e-42
-7.82877e-42
-3.23565e-42
1.31603e-41
4.29707e-42
-3.98807e-42
-1.96411e-42
6.32102e-42
2.06764e-42
-1.94522e-42
-1.09103e-42
2.92183e-42
9.5452e-43
-9.08812e-43
-5.63689e-43
1.29964e-42
4.22802e-43
-4.06828e-43
-2.73408e-43
5.56222e-43
1.79706e-43
-1.74539e-43
-1.25222e-43
2.29023e-43
7.32976e-44
-7.17825e-44
-5.43662e-44
9.07139e-44
2.86883e-44
-2.83018e-44
-2.24307e-44
3.45593e-44
1.07978e-44
-1.07315e-44
-8.85441e-45
1.2675e-44
3.76326e-45
-3.71984e-45
-3.08802e-45
4.39508e-45
1.78436e-45
-1.86835e-45
-1.87133e-45
1.78138e-45
-2.41062e-78
-2.46049e-78
2.13048e-78
2.18035e-78
-3.08594e-77
-3.29877e-77
2.70006e-77
2.91289e-77
-4.14078e-76
-4.3732e-76
3.68195e-76
3.91437e-76
-5.36225e-75
-5.58786e-75
4.8533e-75
5.07891e-75