# vtk DataFile Version 2.0
dg(1) output generated by Nextsim
ASCII
DATASET UNSTRUCTURED_GRID
FIELD FieldData 1
TIME 1 1 double
0
POINTS 40000 DOUBLE
0	0	0
0.01	0	0
0.01	0.01	0
0	0.01	0
0.01	0	0
0.02	0	0
0.02	0.01	0
0.01	0.01	0
0.02	0	0
0.03	0	0
0.03	0.01	0
0.02	0.01	0
0.03	0	0
0.04	0	0
0.04	0.01	0
0.03	0.01	0
0.04	0	0
0.05	0	0
0.05	0.01	0
0.04	0.01	0
0.05	0	0
0.06	0	0
0.06	0.01	0
0.05	0.01	0
0.06	0	0
0.07	0	0
0.07	0.01	0
0.06	0.01	0
0.07	0	0
0.08	0	0
0.08	0.01	0
0.07	0.01	0
0.08	0	0
0.09	0	0
0.09	0.01	0
0.08	0.01	0
0.09	0	0
0.1	0	0
0.1	0.01	0
0.09	0.01	0
0.1	0	0
0.11	0	0
0.11	0.01	0
0.1	0.01	0
0.11	0	0
0.12	0	0
0.12	0.01	0
0.11	0.01	0
0.12	0	0
0.13	0	0
0.13	0.01	0
0.12	0.01	0
0.13	0	0
0.14	0	0
0.14	0.01	0
0.13	0.01	0
0.14	0	0
0.15	0	0
0.15	0.01	0
0.14	0.01	0
0.15	0	0
0.16	0	0
0.16	0.01	0
0.15	0.01	0
0.16	0	0
0.17	0	0
0.17	0.01	0
0.16	0.01	0
0.17	0	0
0.18	0	0
0.18	0.01	0
0.17	0.01	0
0.18	0	0
0.19	0	0
0.19	0.01	0
0.18	0.01	0
0.19	0	0
0.2	0	0
0.2	0.01	0
0.19	0.01	0
0.2	0	0
0.21	0	0
0.21	0.01	0
0.2	0.01	0
0.21	0	0
0.22	0	0
0.22	0.01	0
0.21	0.01	0
0.22	0	0
0.23	0	0
0.23	0.01	0
0.22	0.01	0
0.23	0	0
0.24	0	0
0.24	0.01	0
0.23	0.01	0
0.24	0	0
0.25	0	0
0.25	0.01	0
0.24	0.01	0
0.25	0	0
0.26	0	0
0.26	0.01	0
0.25	0.01	0
0.26	0	0
0.27	0	0
0.27	0.01	0
0.26	0.01	0
0.27	0	0
0.28	0	0
0.28	0.01	0
0.27	0.01	0
0.28	0	0
0.29	0	0
0.29	0.01	0
0.28	0.01	0
0.29	0	0
0.3	0	0
0.3	0.01	0
0.29	0.01	0
0.3	0	0
0.31	0	0
0.31	0.01	0
0.3	0.01	0
0.31	0	0
0.32	0	0
0.32	0.01	0
0.31	0.01	0
0.32	0	0
0.33	0	0
0.33	0.01	0
0.32	0.01	0
0.33	0	0
0.34	0	0
0.34	0.01	0
0.33	0.01	0
0.34	0	0
0.35	0	0
0.35	0.01	0
0.34	0.01	0
0.35	0	0
0.36	0	0
0.36	0.01	0
0.35	0.01	0
0.36	0	0
0.37	0	0
0.37	0.01	0
0.36	0.01	0
0.37	0	0
0.38	0	0
0.38	0.01	0
0.37	0.01	0
0.38	0	0
0.39	0	0
0.39	0.01	0
0.38	0.01	0
0.39	0	0
0.4	0	0
0.4	0.01	0
0.39	0.01	0
0.4	0	0
0.41	0	0
0.41	0.01	0
0.4	0.01	0
0.41	0	0
0.42	0	0
0.42	0.01	0
0.41	0.01	0
0.42	0	0
0.43	0	0
0.43	0.01	0
0.42	0.01	0
0.43	0	0
0.44	0	0
0.44	0.01	0
0.43	0.01	0
0.44	0	0
0.45	0	0
0.45	0.01	0
0.44	0.01	0
0.45	0	0
0.46	0	0
0.46	0.01	0
0.45	0.01	0
0.46	0	0
0.47	0	0
0.47	0.01	0
0.46	0.01	0
0.47	0	0
0.48	0	0
0.48	0.01	0
0.47	0.01	0
0.48	0	0
0.49	0	0
0.49	0.01	0
0.48	0.01	0
0.49	0	0
0.5	0	0
0.5	0.01	0
0.49	0.01	0
0.5	0	0
0.51	0	0
0.51	0.01	0
0.5	0.01	0
0.51	0	0
0.52	0	0
0.52	0.01	0
0.51	0.01	0
0.52	0	0
0.53	0	0
0.53	0.01	0
0.52	0.01	0
0.53	0	0
0.54	0	0
0.54	0.01	0
0.53	0.01	0
0.54	0	0
0.55	0	0
0.55	0.01	0
0.54	0.01	0
0.55	0	0
0.56	0	0
0.56	0.01	0
0.55	0.01	0
0.56	0	0
0.57	0	0
0.57	0.01	0
0.56	0.01	0
0.57	0	0
0.58	0	0
0.58	0.01	0
0.57	0.01	0
0.58	0	0
0.59	0	0
0.59	0.01	0
0.58	0.01	0
0.59	0	0
0.6	0	0
0.6	0.01	0
0.59	0.01	0
0.6	0	0
0.61	0	0
0.61	0.01	0
0.6	0.01	0
0.61	0	0
0.62	0	0
0.62	0.01	0
0.61	0.01	0
0.62	0	0
0.63	0	0
0.63	0.01	0
0.62	0.01	0
0.63	0	0
0.64	0	0
0.64	0.01	0
0.63	0.01	0
0.64	0	0
0.65	0	0
0.65	0.01	0
0.64	0.01	0
0.65	0	0
0.66	0	0
0.66	0.01	0
0.65	0.01	0
0.66	0	0
0.67	0	0
0.67	0.01	0
0.66	0.01	0
0.67	0	0
0.68	0	0
0.68	0.01	0
0.67	0.01	0
0.68	0	0
0.69	0	0
0.69	0.01	0
0.68	0.01	0
0.69	0	0
0.7	0	0
0.7	0.01	0
0.69	0.01	0
0.7	0	0
0.71	0	0
0.71	0.01	0
0.7	0.01	0
0.71	0	0
0.72	0	0
0.72	0.01	0
0.71	0.01	0
0.72	0	0
0.73	0	0
0.73	0.01	0
0.72	0.01	0
0.73	0	0
0.74	0	0
0.74	0.01	0
0.73	0.01	0
0.74	0	0
0.75	0	0
0.75	0.01	0
0.74	0.01	0
0.75	0	0
0.76	0	0
0.76	0.01	0
0.75	0.01	0
0.76	0	0
0.77	0	0
0.77	0.01	0
0.76	0.01	0
0.77	0	0
0.78	0	0
0.78	0.01	0
0.77	0.01	0
0.78	0	0
0.79	0	0
0.79	0.01	0
0.78	0.01	0
0.79	0	0
0.8	0	0
0.8	0.01	0
0.79	0.01	0
0.8	0	0
0.81	0	0
0.81	0.01	0
0.8	0.01	0
0.81	0	0
0.82	0	0
0.82	0.01	0
0.81	0.01	0
0.82	0	0
0.83	0	0
0.83	0.01	0
0.82	0.01	0
0.83	0	0
0.84	0	0
0.84	0.01	0
0.83	0.01	0
0.84	0	0
0.85	0	0
0.85	0.01	0
0.84	0.01	0
0.85	0	0
0.86	0	0
0.86	0.01	0
0.85	0.01	0
0.86	0	0
0.87	0	0
0.87	0.01	0
0.86	0.01	0
0.87	0	0
0.88	0	0
0.88	0.01	0
0.87	0.01	0
0.88	0	0
0.89	0	0
0.89	0.01	0
0.88	0.01	0
0.89	0	0
0.9	0	0
0.9	0.01	0
0.89	0.01	0
0.9	0	0
0.91	0	0
0.91	0.01	0
0.9	0.01	0
0.91	0	0
0.92	0	0
0.92	0.01	0
0.91	0.01	0
0.92	0	0
0.93	0	0
0.93	0.01	0
0.92	0.01	0
0.93	0	0
0.94	0	0
0.94	0.01	0
0.93	0.01	0
0.94	0	0
0.95	0	0
0.95	0.01	0
0.94	0.01	0
0.95	0	0
0.96	0	0
0.96	0.01	0
0.95	0.01	0
0.96	0	0
0.97	0	0
0.97	0.01	0
0.96	0.01	0
0.97	0	0
0.98	0	0
0.98	0.01	0
0.97	0.01	0
0.98	0	0
0.99	0	0
0.99	0.01	0
0.98	0.01	0
0.99	0	0
1	0	0
1	0.01	0
0.99	0.01	0
0	0.01	0
0.01	0.01	0
0.01	0.02	0
0	0.02	0
0.01	0.01	0
0.02	0.01	0
0.02	0.02	0
0.01	0.02	0
0.02	0.01	0
0.03	0.01	0
0.03	0.02	0
0.02	0.02	0
0.03	0.01	0
0.04	0.01	0
0.04	0.02	0
0.03	0.02	0
0.04	0.01	0
0.05	0.01	0
0.05	0.02	0
0.04	0.02	0
0.05	0.01	0
0.06	0.01	0
0.06	0.02	0
0.05	0.02	0
0.06	0.01	0
0.07	0.01	0
0.07	0.02	0
0.06	0.02	0
0.07	0.01	0
0.08	0.01	0
0.08	0.02	0
0.07	0.02	0
0.08	0.01	0
0.09	0.01	0
0.09	0.02	0
0.08	0.02	0
0.09	0.01	0
0.1	0.01	0
0.1	0.02	0
0.09	0.02	0
0.1	0.01	0
0.11	0.01	0
0.11	0.02	0
0.1	0.02	0
0.11	0.01	0
0.12	0.01	0
0.12	0.02	0
0.11	0.02	0
0.12	0.01	0
0.13	0.01	0
0.13	0.02	0
0.12	0.02	0
0.13	0.01	0
0.14	0.01	0
0.14	0.02	0
0.13	0.02	0
0.14	0.01	0
0.15	0.01	0
0.15	0.02	0
0.14	0.02	0
0.15	0.01	0
0.16	0.01	0
0.16	0.02	0
0.15	0.02	0
0.16	0.01	0
0.17	0.01	0
0.17	0.02	0
0.16	0.02	0
0.17	0.01	0
0.18	0.01	0
0.18	0.02	0
0.17	0.02	0
0.18	0.01	0
0.19	0.01	0
0.19	0.02	0
0.18	0.02	0
0.19	0.01	0
0.2	0.01	0
0.2	0.02	0
0.19	0.02	0
0.2	0.01	0
0.21	0.01	0
0.21	0.02	0
0.2	0.02	0
0.21	0.01	0
0.22	0.01	0
0.22	0.02	0
0.21	0.02	0
0.22	0.01	0
0.23	0.01	0
0.23	0.02	0
0.22	0.02	0
0.23	0.01	0
0.24	0.01	0
0.24	0.02	0
0.23	0.02	0
0.24	0.01	0
0.25	0.01	0
0.25	0.02	0
0.24	0.02	0
0.25	0.01	0
0.26	0.01	0
0.26	0.02	0
0.25	0.02	0
0.26	0.01	0
0.27	0.01	0
0.27	0.02	0
0.26	0.02	0
0.27	0.01	0
0.28	0.01	0
0.28	0.02	0
0.27	0.02	0
0.28	0.01	0
0.29	0.01	0
0.29	0.02	0
0.28	0.02	0
0.29	0.01	0
0.3	0.01	0
0.3	0.02	0
0.29	0.02	0
0.3	0.01	0
0.31	0.01	0
0.31	0.02	0
0.3	0.02	0
0.31	0.01	0
0.32	0.01	0
0.32	0.02	0
0.31	0.02	0
0.32	0.01	0
0.33	0.01	0
0.33	0.02	0
0.32	0.02	0
0.33	0.01	0
0.34	0.01	0
0.34	0.02	0
0.33	0.02	0
0.34	0.01	0
0.35	0.01	0
0.35	0.02	0
0.34	0.02	0
0.35	0.01	0
0.36	0.01	0
0.36	0.02	0
0.35	0.02	0
0.36	0.01	0
0.37	0.01	0
0.37	0.02	0
0.36	0.02	0
0.37	0.01	0
0.38	0.01	0
0.38	0.02	0
0.37	0.02	0
0.38	0.01	0
0.39	0.01	0
0.39	0.02	0
0.38	0.02	0
0.39	0.01	0
0.4	0.01	0
0.4	0.02	0
0.39	0.02	0
0.4	0.01	0
0.41	0.01	0
0.41	0.02	0
0.4	0.02	0
0.41	0.01	0
0.42	0.01	0
0.42	0.02	0
0.41	0.02	0
0.42	0.01	0
0.43	0.01	0
0.43	0.02	0
0.42	0.02	0
0.43	0.01	0
0.44	0.01	0
0.44	0.02	0
0.43	0.02	0
0.44	0.01	0
0.45	0.01	0
0.45	0.02	0
0.44	0.02	0
0.45	0.01	0
0.46	0.01	0
0.46	0.02	0
0.45	0.02	0
0.46	0.01	0
0.47	0.01	0
0.47	0.02	0
0.46	0.02	0
0.47	0.01	0
0.48	0.01	0
0.48	0.02	0
0.47	0.02	0
0.48	0.01	0
0.49	0.01	0
0.49	0.02	0
0.48	0.02	0
0.49	0.01	0
0.5	0.01	0
0.5	0.02	0
0.49	0.02	0
0.5	0.01	0
0.51	0.01	0
0.51	0.02	0
0.5	0.02	0
0.51	0.01	0
0.52	0.01	0
0.52	0.02	0
0.51	0.02	0
0.52	0.01	0
0.53	0.01	0
0.53	0.02	0
0.52	0.02	0
0.53	0.01	0
0.54	0.01	0
0.54	0.02	0
0.53	0.02	0
0.54	0.01	0
0.55	0.01	0
0.55	0.02	0
0.54	0.02	0
0.55	0.01	0
0.56	0.01	0
0.56	0.02	0
0.55	0.02	0
0.56	0.01	0
0.57	0.01	0
0.57	0.02	0
0.56	0.02	0
0.57	0.01	0
0.58	0.01	0
0.58	0.02	0
0.57	0.02	0
0.58	0.01	0
0.59	0.01	0
0.59	0.02	0
0.58	0.02	0
0.59	0.01	0
0.6	0.01	0
0.6	0.02	0
0.59	0.02	0
0.6	0.01	0
0.61	0.01	0
0.61	0.02	0
0.6	0.02	0
0.61	0.01	0
0.62	0.01	0
0.62	0.02	0
0.61	0.02	0
0.62	0.01	0
0.63	0.01	0
0.63	0.02	0
0.62	0.02	0
0.63	0.01	0
0.64	0.01	0
0.64	0.02	0
0.63	0.02	0
0.64	0.01	0
0.65	0.01	0
0.65	0.02	0
0.64	0.02	0
0.65	0.01	0
0.66	0.01	0
0.66	0.02	0
0.65	0.02	0
0.66	0.01	0
0.67	0.01	0
0.67	0.02	0
0.66	0.02	0
0.67	0.01	0
0.68	0.01	0
0.68	0.02	0
0.67	0.02	0
0.68	0.01	0
0.69	0.01	0
0.69	0.02	0
0.68	0.02	0
0.69	0.01	0
0.7	0.01	0
0.7	0.02	0
0.69	0.02	0
0.7	0.01	0
0.71	0.01	0
0.71	0.02	0
0.7	0.02	0
0.71	0.01	0
0.72	0.01	0
0.72	0.02	0
0.71	0.02	0
0.72	0.01	0
0.73	0.01	0
0.73	0.02	0
0.72	0.02	0
0.73	0.01	0
0.74	0.01	0
0.74	0.02	0
0.73	0.02	0
0.74	0.01	0
0.75	0.01	0
0.75	0.02	0
0.74	0.02	0
0.75	0.01	0
0.76	0.01	0
0.76	0.02	0
0.75	0.02	0
0.76	0.01	0
0.77	0.01	0
0.77	0.02	0
0.76	0.02	0
0.77	0.01	0
0.78	0.01	0
0.78	0.02	0
0.77	0.02	0
0.78	0.01	0
0.79	0.01	0
0.79	0.02	0
0.78	0.02	0
0.79	0.01	0
0.8	0.01	0
0.8	0.02	0
0.79	0.02	0
0.8	0.01	0
0.81	0.01	0
0.81	0.02	0
0.8	0.02	0
0.81	0.01	0
0.82	0.01	0
0.82	0.02	0
0.81	0.02	0
0.82	0.01	0
0.83	0.01	0
0.83	0.02	0
0.82	0.02	0
0.83	0.01	0
0.84	0.01	0
0.84	0.02	0
0.83	0.02	0
0.84	0.01	0
0.85	0.01	0
0.85	0.02	0
0.84	0.02	0
0.85	0.01	0
0.86	0.01	0
0.86	0.02	0
0.85	0.02	0
0.86	0.01	0
0.87	0.01	0
0.87	0.02	0
0.86	0.02	0
0.87	0.01	0
0.88	0.01	0
0.88	0.02	0
0.87	0.02	0
0.88	0.01	0
0.89	0.01	0
0.89	0.02	0
0.88	0.02	0
0.89	0.01	0
0.9	0.01	0
0.9	0.02	0
0.89	0.02	0
0.9	0.01	0
0.91	0.01	0
0.91	0.02	0
0.9	0.02	0
0.91	0.01	0
0.92	0.01	0
0.92	0.02	0
0.91	0.02	0
0.92	0.01	0
0.93	0.01	0
0.93	0.02	0
0.92	0.02	0
0.93	0.01	0
0.94	0.01	0
0.94	0.02	0
0.93	0.02	0
0.94	0.01	0
0.95	0.01	0
0.95	0.02	0
0.94	0.02	0
0.95	0.01	0
0.96	0.01	0
0.96	0.02	0
0.95	0.02	0
0.96	0.01	0
0.97	0.01	0
0.97	0.02	0
0.96	0.02	0
0.97	0.01	0
0.98	0.01	0
0.98	0.02	0
0.97	0.02	0
0.98	0.01	0
0.99	0.01	0
0.99	0.02	0
0.98	0.02	0
0.99	0.01	0
1	0.01	0
1	0.02	0
0.99	0.02	0
0	0.02	0
0.01	0.02	0
0.01	0.03	0
0	0.03	0
0.01	0.02	0
0.02	0.02	0
0.02	0.03	0
0.01	0.03	0
0.02	0.02	0
0.03	0.02	0
0.03	0.03	0
0.02	0.03	0
0.03	0.02	0
0.04	0.02	0
0.04	0.03	0
0.03	0.03	0
0.04	0.02	0
0.05	0.02	0
0.05	0.03	0
0.04	0.03	0
0.05	0.02	0
0.06	0.02	0
0.06	0.03	0
0.05	0.03	0
0.06	0.02	0
0.07	0.02	0
0.07	0.03	0
0.06	0.03	0
0.07	0.02	0
0.08	0.02	0
0.08	0.03	0
0.07	0.03	0
0.08	0.02	0
0.09	0.02	0
0.09	0.03	0
0.08	0.03	0
0.09	0.02	0
0.1	0.02	0
0.1	0.03	0
0.09	0.03	0
0.1	0.02	0
0.11	0.02	0
0.11	0.03	0
0.1	0.03	0
0.11	0.02	0
0.12	0.02	0
0.12	0.03	0
0.11	0.03	0
0.12	0.02	0
0.13	0.02	0
0.13	0.03	0
0.12	0.03	0
0.13	0.02	0
0.14	0.02	0
0.14	0.03	0
0.13	0.03	0
0.14	0.02	0
0.15	0.02	0
0.15	0.03	0
0.14	0.03	0
0.15	0.02	0
0.16	0.02	0
0.16	0.03	0
0.15	0.03	0
0.16	0.02	0
0.17	0.02	0
0.17	0.03	0
0.16	0.03	0
0.17	0.02	0
0.18	0.02	0
0.18	0.03	0
0.17	0.03	0
0.18	0.02	0
0.19	0.02	0
0.19	0.03	0
0.18	0.03	0
0.19	0.02	0
0.2	0.02	0
0.2	0.03	0
[...]
POINT_DATA 40000
SCALARS dg1 DOUBLE 
LOOKUP_TABLE default
-2.88644e-83
-2.62886e-83
2.66925e-83
2.41167e-83
-3.66773e-82
-3.53877e-82
3.67163e-82
3.54267e-82
-5.04857e-81
-4.78539e-81
5.15462e-81
4.89144e-81
-6.69862e-80
-6.22921e-80
6.98275e-80
6.51334e-80
-8.56624e-79
-7.80412e-79
9.12557e-79
8.36345e-79
-1.05566e-77
-9.40839e-78
1.15029e-77
1.03547e-77
-1.25351e-76
-1.09127e-76
1.39824e-76
1.23599e-76
-1.434e-75
-1.21757e-75
1.63867e-75
1.42224e-75
-1.58025e-74
-1.30657e-74
1.85118e-74
1.5775e-74
-1.67728e-73
-1.34825e-73
2.01543e-73
1.6864e-73
-1.71449e-72
-1.33762e-72
2.11431e-72
1.73743e-72
-1.68757e-71
-1.27567e-71
2.13681e-71
1.72491e-71
-1.59932e-70
-1.16927e-70
2.0801e-70
1.65005e-70
-1.45916e-69
-1.02986e-69
1.95007e-69
1.52076e-69
-1.2815e-68
-8.71457e-69
1.76031e-68
1.35027e-68
-1.08326e-67
-7.08328e-68
1.5298e-67
1.15487e-67
-8.8125e-67
-5.52907e-67
1.27975e-66
9.51408e-67
-6.89881e-66
-4.14385e-66
1.03039e-65
7.54889e-66
-5.19654e-65
-2.98119e-65
7.98364e-65
5.76828e-65
-3.76596e-64
-2.05825e-64
5.95218e-64
4.24447e-64
-2.62554e-63
-1.36336e-63
4.2695e-63
3.00732e-63
-1.76076e-62
-8.66156e-63
2.94615e-62
2.05155e-62
-1.13575e-61
-5.27605e-62
1.95556e-61
1.34741e-61
-7.04579e-61
-3.08024e-61
1.24848e-60
8.51922e-61
-4.2034e-60
-1.72279e-60
7.66567e-60
5.18507e-60
-2.41134e-59
-9.2265e-60
4.52631e-59
3.03762e-59
-1.33005e-58
-4.72869e-59
2.56999e-58
1.7128e-58
-7.05336e-58
-2.3176e-58
1.40308e-57
9.29501e-58
-3.59587e-57
-1.08532e-57
7.36493e-57
4.85438e-57
-1.76221e-56
-4.85105e-57
3.71679e-56
2.43968e-56
-8.3009e-56
-2.06678e-56
1.80325e-55
1.17983e-55
-3.75811e-55
-8.37867e-56
8.41027e-55
5.49003e-55
-1.63514e-54
-3.22455e-55
3.77062e-54
2.45793e-54
-6.83676e-54
-1.1743e-54
1.62497e-53
1.05873e-53
-2.74674e-53
-4.028e-54
6.73121e-53
4.38727e-53
-1.06028e-52
-1.29214e-53
2.68003e-52
1.74896e-52
-3.93213e-52
-3.83139e-53
1.02558e-51
6.70684e-52
-1.40086e-51
-1.02781e-52
3.77203e-51
2.47395e-51
-4.79386e-51
-2.38115e-52
1.33334e-50
8.77763e-51
-1.57564e-50
-4.1514e-52
4.52956e-50
2.99543e-50
-4.9736e-50
-1.69285e-52
1.47881e-49
9.83146e-50
-1.50757e-49
2.88818e-51
4.63984e-49
3.10339e-49
-4.38762e-49
1.81372e-50
1.399e-48
9.42097e-49
-1.22596e-48
7.74022e-50
4.05367e-48
2.75031e-48
-3.2882e-48
2.78057e-49
1.12873e-47
7.72105e-48
-8.46473e-48
8.93874e-49
3.0202e-47
2.08434e-47
-2.09123e-47
2.6438e-48
7.76597e-47
5.41037e-47
-4.9549e-47
7.24224e-48
1.91842e-46
1.35051e-46
-1.12729e-46
1.92526e-47
4.55824e-46
3.23842e-46
-2.42689e-46
4.43881e-47
1.03404e-45
7.46965e-46
-4.95759e-46
7.38891e-47
2.19372e-45
1.62407e-45
-1.00567e-45
1.54204e-46
4.4239e-45
3.26402e-45
-1.98249e-45
2.91681e-46
8.61489e-45
6.34072e-45
-3.79385e-45
4.97178e-46
1.61948e-44
1.19038e-44
-7.03922e-45
7.46859e-46
2.93786e-44
2.15925e-44
-1.2646e-44
9.29342e-46
5.14111e-44
3.78357e-44
-2.19663e-44
7.56681e-46
8.67527e-44
6.40297e-44
-3.68421e-44
-3.65155e-46
1.41104e-43
1.04627e-43
-5.95874e-44
-3.49675e-45
2.21131e-43
1.6504e-43
-9.28266e-44
-1.03245e-44
3.33767e-43
2.51265e-43
-1.39133e-43
-2.3259e-44
4.85005e-43
3.6913e-43
-2.00451e-43
-4.53914e-44
6.78246e-43
5.23187e-43
-2.77348e-43
-8.0222e-44
9.12429e-43
7.15302e-43
-3.68241e-43
-1.31111e-43
1.18035e-42
9.43223e-43
-4.68815e-43
-2.00467e-43
1.46777e-42
1.19942e-42
-5.719e-43
-2.88805e-43
1.75376e-42
1.47067e-42
-6.67988e-43
-3.93882e-43
2.01267e-42
1.73857e-42
-7.46477e-43
-5.10207e-43
2.21762e-42
1.98136e-42
-7.97438e-43
-6.29179e-43
2.34491e-42
2.17666e-42
-8.13564e-43
-7.39971e-43
2.37841e-42
2.30482e-42
-7.91775e-43
-8.31098e-43
2.31284e-42
2.35217e-42
-7.34016e-43
-8.92362e-43
2.15505e-42
2.31339e-42
-6.47e-43
-9.16727e-43
1.9228e-42
2.19253e-42
-5.40914e-43
-9.01643e-43
1.64153e-42
2.00226e-42
-4.27454e-43
-8.49486e-43
1.33968e-42
1.76171e-42
-3.17693e-43
-7.66995e-43
1.04401e-42
1.49332e-42
-2.20343e-43
-6.63889e-43
7.75798e-43
1.21934e-42
-1.40757e-43
-5.51051e-43
5.48699e-43
9.58994e-43
-8.07883e-44
-4.38718e-43
3.68467e-43
7.26397e-43
-3.93729e-44
-3.3509e-43
2.34133e-43
5.29849e-43
-1.35193e-44
-2.45579e-43
1.40077e-43
3.72136e-43
6.16304e-46
-1.72716e-43
7.83023e-44
2.51635e-43
6.83983e-45
-1.16584e-43
4.03742e-44
1.63798e-43
8.34797e-45
-7.55349e-44
1.87443e-44
1.02627e-43
7.48591e-45
-4.69779e-44
7.42034e-45
6.18842e-44
5.76024e-45
-2.80484e-44
2.10089e-45
3.59095e-44
3.99935e-45
-1.60773e-44
-2.72842e-47
2.00493e-44
2.56303e-45
-8.84766e-45
-6.41048e-46
1.07696e-44
1.53477e-45
-4.67491e-45
-6.44685e-46
5.565e-45
8.65062e-46
-2.37171e-45
-4.70826e-46
2.76595e-45
4.61138e-46
-1.15533e-45
-2.94281e-46
1.32219e-45
2.33245e-46
-5.40406e-46
-1.65835e-46
6.07816e-46
1.12202e-46
-2.42722e-46
-8.62441e-47
2.6868e-46
5.14227e-47
-1.04685e-46
-4.19121e-47
1.14195e-46
2.24823e-47
-4.33558e-47
-1.91753e-47
4.66628e-47
9.38653e-48
-1.72429e-47
-8.29909e-48
1.83304e-47
3.7453e-48
-6.58515e-48
-3.40878e-48
6.92167e-48
1.43087e-48
-2.41731e-48
-1.33472e-48
2.51346e-48
5.08469e-49
-8.35067e-49
-4.75986e-49
8.6755e-49
2.48562e-49
-3.46564e-49
-2.60647e-49
3.34479e-49
-4.1268e-82
-3.64883e-82
3.86189e-82
3.38391e-82
-5.20117e-81
-4.89052e-81
5.36979e-81
5.05915e-81
-7.17468e-80
-6.61478e-80
7.56334e-80
7.00344e-80
-9.53943e-79
-8.61091e-79
1.0278e-78
9.34947e-79
-1.22236e-77
-1.07864e-77
1.34725e-77
1.20353e-77
-1.50931e-76
-1.29994e-76
1.70313e-76
1.49375e-76
-1.79556e-75
-1.50697e-75
2.07593e-75
1.78734e-75
-2.05783e-74
-1.68015e-74
2.43925e-74
2.06157e-74
-2.27169e-73
-1.80123e-73
2.76242e-73
2.29196e-73
-2.41528e-72
-1.85649e-72
3.0146e-72
2.45581e-72
-2.47292e-71
-1.83922e-71
3.16952e-71
2.53582e-71
-2.43797e-70
-1.7511e-70
3.20998e-70
2.52311e-70
-2.31403e-69
-1.60191e-69
3.13097e-69
2.41885e-69
-2.11438e-68
-1.40775e-68
2.94071e-68
2.23407e-68
-1.85962e-67
-1.18817e-67
2.65921e-67
1.98776e-67
-1.57415e-66
-9.62945e-67
2.31481e-66
1.7036e-66
-1.28235e-65
-7.49183e-66
1.93945e-65
1.40629e-65
-1.00521e-64
-5.59403e-65
1.56382e-64
1.11802e-64
-7.58149e-64
-4.00765e-64
1.21334e-63
8.5596e-64
-5.50126e-63
-2.75389e-63
9.05775e-63
6.31038e-63
-3.84006e-62
-1.81446e-62
6.50502e-62
4.47941e-62
-2.57836e-61
-1.14582e-61
4.49392e-61
3.06138e-61
-1.6651e-60
-6.93214e-61
2.98614e-60
2.01425e-60
-1.03417e-59
-4.01578e-60
1.90837e-59
1.27579e-59
-6.17673e-59
-2.2262e-59
1.17288e-58
7.77824e-59
-3.54739e-58
-1.18013e-58
6.93177e-58
4.5645e-58
-1.95888e-57
-5.97707e-58
3.9392e-57
2.57803e-57
-1.03997e-56
-2.8891e-57
2.15237e-56
1.40131e-56
-5.30779e-56
-1.33091e-56
1.1307e-55
7.33008e-56
-2.60407e-55
-5.83256e-56
5.71046e-55
3.68964e-55
-1.22803e-54
-2.42575e-55
2.7725e-54
1.78705e-54
-5.566e-54
-9.54217e-55
1.29398e-53
8.32799e-54
-2.42453e-53
-3.53291e-54
5.80522e-53
3.73398e-53
-1.01491e-52
-1.22188e-53
2.50341e-52
1.61068e-52
-4.08238e-52
-3.8983e-53
1.03765e-51
6.68391e-52
-1.57778e-51
-1.12071e-52
4.13388e-51
2.66817e-51
-5.85864e-51
-2.7554e-52
1.58287e-50
1.02456e-50
-2.0899e-50
-4.91368e-52
5.82505e-50
3.78429e-50
-7.16144e-50
-3.49439e-53
2.06021e-49
1.34441e-49
-2.35712e-49
5.19107e-51
7.00274e-49
4.59372e-49
-7.45126e-49
3.27896e-50
2.28751e-48
1.5096e-48
-2.26207e-48
1.48039e-49
7.18107e-48
4.77097e-48
-6.59423e-48
5.69243e-49
2.1664e-47
1.45005e-47
-1.84569e-47
1.96807e-48
6.28062e-47
4.23812e-47
-4.95953e-47
6.26623e-48
1.74976e-46
1.19114e-46
-1.27925e-46
1.86073e-47
4.68445e-46
3.21913e-46
-3.16696e-46
5.19274e-47
1.20515e-45
8.36526e-46
-7.52294e-46
1.36779e-46
2.9792e-45
2.09012e-45
-1.7136e-45
3.43379e-46
7.07656e-45
5.01958e-45
-3.71951e-45
8.35087e-46
1.61233e-44
1.15687e-44
-7.44939e-45
1.9559e-45
3.47458e-44
2.53405e-44
-1.40915e-44
5.41231e-45
7.14507e-44
5.19469e-44
-2.56607e-44
1.31793e-44
1.41783e-43
1.02943e-43
-4.49529e-44
2.92831e-44
2.71367e-43
1.97131e-43
-7.56872e-44
6.04181e-44
5.00725e-43
3.6462e-43
-1.22327e-43
1.16883e-43
8.90348e-43
6.51138e-43
-1.89474e-43
2.13258e-43
1.52494e-42
1.1222e-42
-2.80639e-43
3.68322e-43
2.51478e-42
1.86581e-42
-3.96303e-43
6.03586e-43
3.9915e-42
2.99161e-42
-5.31344e-43
9.399e-43
6.09545e-42
4.6242e-42
-6.72253e-43
1.39192e-42
8.95288e-42
6.88871e-42
-7.94929e-43
1.96097e-42
1.26436e-41
9.88768e-42
-8.6415e-43
2.62774e-42
1.71631e-41
1.36713e-41
-8.35866e-43
3.34711e-42
2.23882e-41
1.82052e-41
-6.63065e-43
4.04779e-42
2.80555e-41
2.33446e-41
-3.0504e-43
4.63872e-42
3.37656e-41
2.88218e-41
2.61345e-43
5.02284e-42
3.90186e-41
3.42571e-41
1.03105e-42
5.11603e-42
4.32804e-41
3.91954e-41
1.96424e-42
4.86712e-42
4.60689e-41
4.31661e-41
2.98652e-42
4.27337e-42
4.70428e-41
4.57559e-41
3.99749e-42
3.3861e-42
4.60686e-41
4.668e-41
4.88667e-42
2.30412e-42
4.32503e-41
4.58328e-41
5.55329e-42
1.15567e-42
3.89108e-41
4.33084e-41
5.92521e-42
7.34935e-44
3.35313e-41
3.9383e-41
5.97187e-42
-8.30249e-43
2.76629e-41
3.4465e-41
5.70821e-42
-1.48274e-42
2.18341e-41
2.90251e-41
5.18873e-42
-1.85872e-42
1.64753e-41
2.35227e-41
4.49414e-42
-1.97726e-42
1.18735e-41
1.83449e-41
3.71437e-42
-1.88982e-42
8.16312e-42
1.37673e-41
2.93259e-42
-1.66396e-42
5.34562e-42
9.94216e-42
2.21369e-42
-1.3676e-42
3.32751e-42
6.90879e-42
1.59871e-42
-1.05748e-42
1.96339e-42
4.61958e-42
1.10521e-42
-7.73143e-43
1.0938e-42
2.97215e-42
7.3169e-43
-5.36304e-43
5.71897e-43
1.83989e-42
4.64063e-43
-3.53817e-43
2.77977e-43
1.09586e-42
2.82048e-43
-2.22403e-43
1.2352e-43
6.2797e-43
1.64313e-43
-1.33378e-43
4.85117e-44
3.46203e-43
9.17741e-44
-7.63945e-44
1.54464e-44
1.83615e-43
4.91522e-44
-4.18253e-44
2.70369e-45
9.36812e-44
2.52471e-44
-2.1903e-44
-1.17286e-45
4.59772e-44
1.24389e-44
-1.09772e-44
-1.7113e-45
2.17048e-44
5.87911e-45
-5.26738e-45
-1.29121e-45
9.85529e-45
2.66589e-45
-2.42092e-45
-7.82935e-46
4.30388e-45
1.15988e-45
-1.06607e-45
-4.18349e-46
1.80761e-45
4.84246e-46
-4.49911e-46
-2.04065e-46
7.30091e-46
1.94012e-46
-1.82013e-46
-9.24579e-47
2.83567e-46
7.45971e-47
-7.05972e-47
-3.92905e-47
1.05904e-46
2.75463e-47
-2.62849e-47
-1.57905e-47
3.80407e-47
9.59892e-48
-9.16181e-48
-5.71567e-48
1.30451e-47
4.11305e-48
-4.14539e-48
-3.41741e-48
4.84104e-48
-5.87782e-81
-5.14414e-81
5.51054e-81
4.77686e-81
-7.39864e-80
-6.89331e-80
7.70863e-80
7.2033e-80
-1.02241e-78
-9.33251e-79
1.08825e-78
9.99097e-79
-1.36171e-77
-1.2159e-77
1.4821e-77
1.33629e-77
-1.74775e-76
-1.52422e-76
1.94684e-76
1.72331e-76
-2.16145e-75
-1.8381e-75
2.46601e-75
2.14266e-75
-2.57529e-74
-2.13198e-74
3.0115e-74
2.56819e-74
-2.95576e-73
-2.37798e-73
3.54492e-73
2.96714e-73
-3.26752e-72
-2.55015e-72
4.02142e-72
3.30405e-72
-3.47873e-71
-2.62888e-71
4.3956e-71
3.54575e-71
-3.56635e-70
-2.60461e-70
4.62851e-70
3.66677e-70
-3.52027e-69
-2.47967e-69
4.6943e-69
3.65369e-69
-3.34526e-68
-2.26795e-68
4.58493e-68
3.50762e-68
-3.0601e-67
-1.99237e-67
4.31178e-67
3.24405e-67
-2.6943e-66
-1.68076e-66
3.90369e-66
2.89014e-66
-2.28306e-65
-1.36123e-65
3.40193e-65
2.4801e-65
-1.86167e-64
-1.05813e-64
2.8533e-64
2.04975e-64
-1.4607e-63
-7.89224e-64
2.30295e-63
1.63148e-63
-1.10268e-62
-5.64658e-63
1.78849e-62
1.25047e-62
-8.00805e-62
-3.87385e-62
1.3363e-61
9.22876e-62
-5.59442e-61
-2.54743e-61
9.60481e-61
6.55783e-61
-3.75919e-60
-1.605e-60
6.64052e-60
4.48632e-60
-2.42945e-59
-9.6835e-60
4.41573e-59
2.95463e-59
-1.50994e-58
-5.59135e-59
2.82394e-58
1.87313e-58
-9.02428e-58
-3.08756e-58
1.7367e-57
1.14303e-57
-5.186e-57
-1.62909e-57
1.02703e-56
6.71335e-57
-2.86539e-56
-8.20427e-57
5.83977e-56
3.7948e-56
-1.52207e-55
-3.93823e-56
3.19257e-55
2.06433e-55
-7.7723e-55
-1.79868e-55
1.678e-54
1.08064e-54
-3.81503e-54
-7.79757e-55
8.4787e-54
5.44343e-54
-1.79988e-53
-3.19801e-54
4.11841e-53
2.63833e-53
-8.16129e-53
-1.23487e-53
1.92298e-52
1.23034e-52
-3.55637e-52
-4.45631e-53
8.63071e-52
5.51997e-52
-1.48921e-51
-1.48459e-52
3.72331e-51
2.38256e-51
-5.99203e-51
-4.46293e-52
1.54387e-50
9.89292e-51
-2.31646e-50
-1.15125e-51
6.1528e-50
3.95146e-50
-8.60355e-50
-2.1817e-51
2.35671e-49
1.51818e-49
-3.06969e-49
-4.5276e-52
8.67564e-49
5.61048e-49
-1.05206e-48
2.3079e-50
3.06934e-48
1.99421e-48
-3.46316e-48
1.55376e-49
1.04359e-47
6.81737e-48
-1.09486e-47
7.36816e-49
3.40995e-47
2.24141e-47
-3.32392e-47
2.96574e-48
1.07075e-46
7.08704e-47
-9.68961e-47
1.072e-47
3.23109e-46
2.15493e-46
-2.71193e-46
3.56664e-47
9.36958e-46
6.30099e-46
-7.28642e-46
1.10655e-46
2.61094e-45
1.77165e-45
-1.87913e-45
3.22579e-46
6.99158e-45
4.78987e-45
-4.65104e-45
8.88038e-46
1.79909e-44
1.24518e-44
-1.10452e-44
2.31528e-45
4.44838e-44
3.11233e-44
-2.5152e-44
5.76077e-45
1.05686e-43
7.47736e-44
-5.45959e-44
1.38562e-44
2.40877e-43
1.72425e-43
-1.09541e-43
3.21331e-44
5.1981e-43
3.78136e-43
-2.07595e-43
8.61061e-44
1.07064e-42
7.7694e-43
-3.78526e-43
2.06069e-43
2.12727e-42
1.54267e-42
-6.63581e-43
4.53057e-43
4.07559e-42
2.95896e-42
-1.11734e-42
9.28311e-43
7.52604e-42
5.48039e-42
-1.80468e-42
1.78734e-42
1.33897e-41
9.79766e-42
-2.79121e-42
3.25001e-42
2.29419e-41
1.69007e-41
-4.12439e-42
5.59927e-42
3.78428e-41
2.81192e-41
-5.80403e-42
9.1591e-42
6.00728e-41
4.51097e-41
-7.74388e-42
1.42436e-41
9.17421e-41
6.97547e-41
-9.73083e-42
2.10738e-41
1.34747e-40
1.03943e-40
-1.1394e-41
2.96716e-41
1.90285e-40
1.49219e-40
-1.22001e-41
3.97498e-41
2.58286e-40
2.06336e-40
-1.14917e-41
5.06355e-41
3.36893e-40
2.74766e-40
-8.57898e-42
6.12651e-41
4.22151e-40
3.52307e-40
-2.88043e-42
7.02799e-41
5.08063e-40
4.34903e-40
5.90987e-42
7.62311e-41
5.87127e-40
5.16806e-40
1.76687e-41
7.7862e-41
6.51328e-40
5.91135e-40
3.17533e-41
7.44051e-41
6.93437e-40
6.50785e-40
4.70158e-41
6.58104e-41
7.08325e-40
6.89531e-40
6.19411e-41
5.28289e-41
6.93982e-40
7.03094e-40
7.48898e-41
3.69143e-41
6.51946e-40
6.89922e-40
8.43941e-41
1.99556e-41
5.87038e-40
6.51476e-40
8.9433e-41
3.9096e-42
5.06445e-40
5.91969e-40
8.96146e-41
-9.56819e-42
4.18413e-40
5.17595e-40
8.52207e-41
-1.93993e-41
3.30857e-40
4.35477e-40
7.71086e-41
-2.52016e-41
2.50235e-40
3.52545e-40
6.6504e-41
-2.72424e-41
1.80874e-40
2.74621e-40
5.47485e-41
-2.62626e-41
1.2482e-40
2.05831e-40
4.30652e-41
-2.32392e-41
8.21323e-41
1.48437e-40
3.23937e-41
-1.91566e-41
5.14444e-41
1.02995e-40
2.33158e-41
-1.48376e-41
3.06043e-41
6.87576e-41
1.60663e-41
-1.08573e-41
1.72384e-41
4.41621e-41
1.06034e-41
-7.53343e-42
9.15223e-42
2.7289e-41
6.7047e-42
-4.9693e-42
4.54871e-42
1.62227e-41
4.06301e-42
-3.12215e-42
2.09256e-42
9.27773e-42
2.36024e-42
-1.87107e-42
8.72878e-43
5.10418e-42
1.31459e-42
-1.07073e-42
3.15907e-43
2.70122e-42
7.02146e-43
-5.85602e-43
8.73301e-44
1.37508e-42
3.59695e-43
-3.06309e-43
7.29387e-45
6.73298e-43
1.76754e-43
-1.53319e-43
-1.29843e-44
3.17089e-43
8.33261e-44
-7.34713e-44
-1.31727e-44
1.43625e-43
3.7689e-44
-3.37203e-44
-8.84441e-45
6.25649e-44
1.63572e-44
-1.48272e-44
-4.97457e-45
2.62098e-44
6.81241e-45
-6.24801e-45
-2.50175e-45
1.05587e-44
2.72282e-45
-2.52374e-45
-1.15636e-45
4.0902e-45
1.04445e-45
-9.77334e-46
-4.98272e-46
1.52351e-45
3.84764e-46
-3.63279e-46
-2.0228e-46
5.45763e-46
1.33877e-46
-1.26506e-46
-7.36359e-47
1.86747e-46
5.69938e-47
-5.70703e-47
-4.53675e-47
6.86967e-47
-8.03747e-80
-6.95623e-80
7.55257e-80
6.47133e-80
-1.01028e-78
-9.31778e-79
1.06326e-78
9.84758e-79
-1.39861e-77
-1.26264e-77
1.50452e-77
1.36855e-77
-1.866e-76
-1.64639e-76
2.05356e-76
1.83394e-76
-2.39899e-75
-2.06531e-75
2.70317e-75
2.36949e-75
-2.97161e-74
-2.49209e-74
3.4309e-74
2.95139e-74
-3.54603e-73
-2.89192e-73
4.1978e-73
3.54369e-73
-4.07595e-72
-3.22678e-72
4.95026e-72
4.10109e-72
-4.51227e-71
-3.46124e-71
5.62524e-71
4.5742e-71
-4.81049e-70
-3.56852e-70
6.15853e-70
4.91657e-70
-4.93809e-69
-3.53553e-69
6.49469e-69
5.09213e-69
-4.8804e-68
-3.36541e-68
6.59642e-68
5.08143e-68
-4.64332e-67
-3.07713e-67
6.4514e-67
4.88521e-67
-4.25237e-66
-2.70196e-66
6.07473e-66
4.52432e-66
-3.74815e-65
-2.27789e-65
5.50632e-65
4.03606e-65
-3.17938e-64
-1.84329e-64
4.80393e-64
3.46784e-64
-2.59514e-63
-1.43133e-63
4.03343e-63
2.86962e-63
-2.03813e-62
-1.06619e-62
3.25867e-62
2.28674e-62
-1.53998e-61
-7.61613e-62
2.53306e-61
1.75469e-61
-1.11936e-60
-5.21513e-61
1.89426e-60
1.29642e-60
-7.82624e-60
-3.42167e-60
1.36264e-59
9.22186e-60
-5.26298e-59
-2.14997e-59
9.42822e-59
6.3152e-59
-3.40383e-58
-1.29296e-58
6.27401e-58
4.16315e-58
-2.11701e-57
-7.43687e-58
4.01508e-57
2.64176e-57
-1.26609e-56
-4.08761e-57
2.47084e-56
1.61351e-56
-7.28042e-56
-2.14466e-56
1.46206e-55
9.4848e-56
-4.02499e-55
-1.07267e-55
8.31816e-55
5.36584e-55
-2.13922e-54
-5.10539e-55
4.54996e-54
2.92128e-54
-1.09294e-53
-2.30687e-54
2.39267e-53
1.53041e-53
-5.36728e-53
-9.86347e-54
1.20956e-52
7.7147e-53
-2.53336e-52
-3.97188e-53
5.87798e-52
3.74181e-52
-1.14919e-51
-1.49546e-52
2.74575e-51
1.74611e-51
-5.0096e-51
-5.2018e-52
1.23286e-50
7.83914e-51
-2.09846e-50
-1.63506e-51
5.32066e-50
3.3857e-50
-8.44604e-50
-4.42485e-51
2.20702e-49
1.40667e-49
-3.26605e-49
-8.90655e-51
8.7988e-49
5.62182e-49
-1.21332e-48
-3.1202e-51
3.37135e-48
2.16115e-48
-4.32991e-48
9.39332e-50
1.24147e-47
7.99089e-48
-1.4842e-47
6.75557e-49
4.39354e-47
2.84178e-47
-4.88627e-47
3.36603e-48
1.49426e-46
9.71972e-47
-1.54488e-46
1.41819e-47
4.88387e-46
3.19717e-46
-4.69029e-46
5.3585e-47
1.53399e-45
1.01137e-45
-1.36725e-45
1.86253e-46
4.63011e-45
3.07661e-45
-3.82639e-45
6.03534e-46
1.34298e-44
8.99984e-45
-1.02795e-44
1.83755e-45
3.74323e-44
2.53153e-44
-2.65054e-44
5.28282e-45
1.00259e-43
6.84704e-44
-6.55873e-44
1.43904e-44
2.58042e-43
1.78065e-43
-1.55707e-43
3.72155e-44
6.38163e-43
4.4524e-43
-3.54457e-43
9.19385e-44
1.5165e-42
1.0701e-42
-7.69363e-43
2.19183e-43
3.45745e-42
2.4689e-42
-1.5462e-42
5.04146e-43
7.47102e-42
5.42068e-42
-2.93521e-42
1.31402e-42
1.54115e-41
1.11623e-41
-5.35827e-42
3.09562e-42
3.06594e-41
2.22055e-41
-9.39889e-42
6.73891e-42
5.87975e-41
4.26597e-41
-1.5825e-41
1.37167e-41
1.08658e-40
7.91166e-41
-2.55403e-41
2.62871e-41
1.93423e-40
1.41596e-40
-3.944e-41
4.76393e-41
3.31544e-40
2.44465e-40
-5.81319e-41
8.18735e-41
5.47027e-40
4.07021e-40
-8.15068e-41
1.33683e-40
8.685e-40
6.53311e-40
-1.08188e-40
2.07617e-40
1.32645e-39
1.01065e-39
-1.34955e-40
3.06888e-40
1.94827e-39
1.50642e-39
-1.56333e-40
4.31838e-40
2.75119e-39
2.16302e-39
-1.64569e-40
5.78365e-40
3.73419e-39
2.99126e-39
-1.50237e-40
7.36825e-40
4.87043e-39
3.98337e-39
-1.03616e-40
8.91952e-40
6.10279e-39
5.10722e-39
-1.67331e-41
1.02425e-39
7.34476e-39
6.30378e-39
1.14242e-40
1.11291e-39
8.48814e-39
7.48947e-39
2.86864e-40
1.13986e-39
9.41738e-39
8.56439e-39
4.91237e-40
1.094e-39
1.00282e-38
9.42547e-39
7.1037e-40
9.74473e-40
1.02467e-38
9.98261e-39
9.2229e-40
7.91819e-40
1.00437e-38
1.01741e-38
1.10361e-39
5.66595e-40
9.44097e-39
9.97799e-39
1.23378e-39
3.25567e-40
8.50779e-39
9.41601e-39
1.29892e-39
9.64965e-41
7.34736e-39
8.54979e-39
1.29429e-39
-9.70867e-41
6.07822e-39
7.4696e-39
1.22477e-39
-2.39783e-40
4.81435e-39
6.27891e-39
1.10325e-39
-3.26004e-40
3.6489e-39
5.07815e-39
9.47628e-40
-3.59315e-40
2.64448e-39
3.95143e-39
7.77143e-40
-3.49957e-40
1.83105e-39
2.95815e-39
6.09102e-40
-3.11515e-40
1.20996e-39
2.13058e-39
4.56601e-40
-2.57711e-40
7.61988e-40
1.4763e-39
3.2757e-40
-2.00037e-40
4.56501e-40
9.84107e-40
2.25011e-40
-1.46553e-40
2.59525e-40
6.3109e-40
1.48051e-40
-1.01744e-40
1.39528e-40
3.89323e-40
9.33401e-41
-6.71198e-41
7.05788e-41
2.31039e-40
5.64021e-41
-4.21598e-41
3.33258e-41
1.31888e-40
3.26732e-41
-2.52527e-41
1.44933e-41
7.24191e-41
1.81487e-41
-1.44405e-41
5.65962e-42
3.82488e-41
9.66781e-42
-7.89071e-42
1.87183e-42
1.94303e-41
4.93975e-42
-4.12314e-42
4.30611e-43
9.4935e-42
2.4212e-42
-2.06146e-42
-2.1603e-44
4.46106e-42
1.13856e-42
-9.86654e-43
-1.09184e-43
2.01603e-42
5.13713e-43
-4.52247e-43
-8.97971e-44
8.76163e-43
2.22415e-43
-1.98589e-43
-5.4833e-44
3.66172e-43
9.24106e-44
-8.35658e-44
-2.88209e-44
1.47155e-43
3.68487e-44
-3.37056e-44
-1.36898e-44
5.68646e-44
1.41022e-44
-1.30334e-44
-6.00758e-45
2.1128e-44
5.18308e-45
-4.83701e-45
-2.47069e-45
7.5494e-45
1.80081e-45
-1.68297e-45
-9.05872e-46
2.5779e-45
7.61645e-46
-7.5712e-46
-5.78345e-46
9.4042e-46
-1.0558e-78
-9.03014e-79
9.94644e-79
8.41856e-79
-1.32507e-77
-1.20879e-77
1.4095e-77
1.29322e-77
-1.83771e-76
-1.63944e-76
1.99907e-76
1.8008e-76
-2.4561e-75
-2.13932e-75
2.73461e-75
2.41783e-75
-3.16293e-74
-2.6854e-74
3.60724e-74
3.12972e-74
-3.92419e-73
-3.24203e-73
4.58752e-73
3.90536e-73
-4.69e-72
-3.76372e-72