# vtk DataFile Version 2.0
dg(1) output generated by Nextsim
ASCII
DATASET UNSTRUCTURED_GRID
FIELD FieldData 1
TIME 1 1 double
0
POINTS 40000 DOUBLE
0	0	0
0.01	0	0
0.01	0.01	0
0	0.01	0
0.01	0	0
0.02	0	0
0.02	0.01	0
0.01	0.01	0
0.02	0	0
0.03	0	0
0.03	0.01	0
0.02	0.01	0
0.03	0	0
0.04	0	0
0.04	0.01	0
0.03	0.01	0
0.04	0	0
0.05	0	0
0.05	0.01	0
0.04	0.01	0
0.05	0	0
0.06	0	0
0.06	0.01	0
0.05	0.01	0
0.06	0	0
0.07	0	0
0.07	0.01	0
0.06	0.01	0
0.07	0	0
0.08	0	0
0.08	0.01	0
0.07	0.01	0
0.08	0	0
0.09	0	0
0.09	0.01	0
0.08	0.01	0
0.09	0	0
0.1	0	0
0.1	0.01	0
0.09	0.01	0
0.1	0	0
0.11	0	0
0.11	0.01	0
0.1	0.01	0
0.11	0	0
0.12	0	0
0.12	0.01	0
0.11	0.01	0
0.12	0	0
0.13	0	0
0.13	0.01	0
0.12	0.01	0
0.13	0	0
0.14	0	0
0.14	0.01	0
0.13	0.01	0
0.14	0	0
0.15	0	0
0.15	0.01	0
0.14	0.01	0
0.15	0	0
0.16	0	0
0.16	0.01	0
0.15	0.01	0
0.16	0	0
0.17	0	0
0.17	0.01	0
0.16	0.01	0
0.17	0	0
0.18	0	0
0.18	0.01	0
0.17	0.01	0
0.18	0	0
0.19	0	0
0.19	0.01	0
0.18	0.01	0
0.19	0	0
0.2	0	0
0.2	0.01	0
0.19	0.01	0
0.2	0	0
0.21	0	0
0.21	0.01	0
0.2	0.01	0
0.21	0	0
0.22	0	0
0.22	0.01	0
0.21	0.01	0
0.22	0	0
0.23	0	0
0.23	0.01	0
0.22	0.01	0
0.23	0	0
0.24	0	0
0.24	0.01	0
0.23	0.01	0
0.24	0	0
0.25	0	0
0.25	0.01	0
0.24	0.01	0
0.25	0	0
0.26	0	0
0.26	0.01	0
0.25	0.01	0
0.26	0	0
0.27	0	0
0.27	0.01	0
0.26	0.01	0
0.27	0	0
0.28	0	0
0.28	0.01	0
0.27	0.01	0
0.28	0	0
0.29	0	0
0.29	0.01	0
0.28	0.01	0
0.29	0	0
0.3	0	0
0.3	0.01	0
0.29	0.01	0
0.3	0	0
0.31	0	0
0.31	0.01	0
0.3	0.01	0
0.31	0	0
0.32	0	0
0.32	0.01	0
0.31	0.01	0
0.32	0	0
0.33	0	0
0.33	0.01	0
0.32	0.01	0
0.33	0	0
0.34	0	0
0.34	0.01	0
0.33	0.01	0
0.34	0	0
0.35	0	0
0.35	0.01	0
0.34	0.01	0
0.35	0	0
0.36	0	0
0.36	0.01	0
0.35	0.01	0
0.36	0	0
0.37	0	0
0.37	0.01	0
0.36	0.01	0
0.37	0	0
0.38	0	0
0.38	0.01	0
0.37	0.01	0
0.38	0	0
0.39	0	0
0.39	0.01	0
0.38	0.01	0
0.39	0	0
0.4	0	0
0.4	0.01	0
0.39	0.01	0
0.4	0	0
0.41	0	0
0.41	0.01	0
0.4	0.01	0
0.41	0	0
0.42	0	0
0.42	0.01	0
0.41	0.01	0
0.42	0	0
0.43	0	0
0.43	0.01	0
0.42	0.01	0
0.43	0	0
0.44	0	0
0.44	0.01	0
0.43	0.01	0
0.44	0	0
0.45	0	0
0.45	0.01	0
0.44	0.01	0
0.45	0	0
0.46	0	0
0.46	0.01	0
0.45	0.01	0
0.46	0	0
0.47	0	0
0.47	0.01	0
0.46	0.01	0
0.47	0	0
0.48	0	0
0.48	0.01	0
0.47	0.01	0
0.48	0	0
0.49	0	0
0.49	0.01	0
0.48	0.01	0
0.49	0	0
0.5	0	0
0.5	0.01	0
0.49	0.01	0
0.5	0	0
0.51	0	0
0.51	0.01	0
0.5	0.01	0
0.51	0	0
0.52	0	0
0.52	0.01	0
0.51	0.01	0
0.52	0	0
0.53	0	0
0.53	0.01	0
0.52	0.01	0
0.53	0	0
0.54	0	0
0.54	0.01	0
0.53	0.01	0
0.54	0	0
0.55	0	0
0.55	0.01	0
0.54	0.01	0
0.55	0	0
0.56	0	0
0.56	0.01	0
0.55	0.01	0
0.56	0	0
0.57	0	0
0.57	0.01	0
0.56	0.01	0
0.57	0	0
0.58	0	0
0.58	0.01	0
0.57	0.01	0
0.58	0	0
0.59	0	0
0.59	0.01	0
0.58	0.01	0
0.59	0	0
0.6	0	0
0.6	0.01	0
0.59	0.01	0
0.6	0	0
0.61	0	0
0.61	0.01	0
0.6	0.01	0
0.61	0	0
0.62	0	0
0.62	0.01	0
0.61	0.01	0
0.62	0	0
0.63	0	0
0.63	0.01	0
0.62	0.01	0
0.63	0	0
0.64	0	0
0.64	0.01	0
0.63	0.01	0
0.64	0	0
0.65	0	0
0.65	0.01	0
0.64	0.01	0
0.65	0	0
0.66	0	0
0.66	0.01	0
0.65	0.01	0
0.66	0	0
0.67	0	0
0.67	0.01	0
0.66	0.01	0
0.67	0	0
0.68	0	0
0.68	0.01	0
0.67	0.01	0
0.68	0	0
0.69	0	0
0.69	0.01	0
0.68	0.01	0
0.69	0	0
0.7	0	0
0.7	0.01	0
0.69	0.01	0
0.7	0	0
0.71	0	0
0.71	0.01	0
0.7	0.01	0
0.71	0	0
0.72	0	0
0.72	0.01	0
0.71	0.01	0
0.72	0	0
0.73	0	0
0.73	0.01	0
0.72	0.01	0
0.73	0	0
0.74	0	0
0.74	0.01	0
0.73	0.01	0
0.74	0	0
0.75	0	0
0.75	0.01	0
0.74	0.01	0
0.75	0	0
0.76	0	0
0.76	0.01	0
0.75	0.01	0
0.76	0	0
0.77	0	0
0.77	0.01	0
0.76	0.01	0
0.77	0	0
0.78	0	0
0.78	0.01	0
0.77	0.01	0
0.78	0	0
0.79	0	0
0.79	0.01	0
0.78	0.01	0
0.79	0	0
0.8	0	0
0.8	0.01	0
0.79	0.01	0
0.8	0	0
0.81	0	0
0.81	0.01	0
0.8	0.01	0
0.81	0	0
0.82	0	0
0.82	0.01	0
0.81	0.01	0
0.82	0	0
0.83	0	0
0.83	0.01	0
0.82	0.01	0
0.83	0	0
0.84	0	0
0.84	0.01	0
0.83	0.01	0
0.84	0	0
0.85	0	0
0.85	0.01	0
0.84	0.01	0
0.85	0	0
0.86	0	0
0.86	0.01	0
0.85	0.01	0
0.86	0	0
0.87	0	0
0.87	0.01	0
0.86	0.01	0
0.87	0	0
0.88	0	0
0.88	0.01	0
0.87	0.01	0
0.88	0	0
0.89	0	0
0.89	0.01	0
0.88	0.01	0
0.89	0	0
0.9	0	0
0.9	0.01	0
0.89	0.01	0
0.9	0	0
0.91	0	0
0.91	0.01	0
0.9	0.01	0
0.91	0	0
0.92	0	0
0.92	0.01	0
0.91	0.01	0
0.92	0	0
0.93	0	0
0.93	0.01	0
0.92	0.01	0
0.93	0	0
0.94	0	0
0.94	0.01	0
0.93	0.01	0
0.94	0	0
0.95	0	0
0.95	0.01	0
0.94	0.01	0
0.95	0	0
0.96	0	0
0.96	0.01	0
0.95	0.01	0
0.96	0	0
0.97	0	0
0.97	0.01	0
0.96	0.01	0
0.97	0	0
0.98	0	0
0.98	0.01	0
0.97	0.01	0
0.98	0	0
0.99	0	0
0.99	0.01	0
0.98	0.01	0
0.99	0	0
1	0	0
1	0.01	0
0.99	0.01	0
0	0.01	0
0.01	0.01	0
0.01	0.02	0
0	0.02	0
0.01	0.01	0
0.02	0.01	0
0.02	0.02	0
0.01	0.02	0
0.02	0.01	0
0.03	0.01	0
0.03	0.02	0
0.02	0.02	0
0.03	0.01	0
0.04	0.01	0
0.04	0.02	0
0.03	0.02	0
0.04	0.01	0
0.05	0.01	0
0.05	0.02	0
0.04	0.02	0
0.05	0.01	0
0.06	0.01	0
0.06	0.02	0
0.05	0.02	0
0.06	0.01	0
0.07	0.01	0
0.07	0.02	0
0.06	0.02	0
0.07	0.01	0
0.08	0.01	0
0.08	0.02	0
0.07	0.02	0
0.08	0.01	0
0.09	0.01	0
0.09	0.02	0
0.08	0.02	0
0.09	0.01	0
0.1	0.01	0
0.1	0.02	0
0.09	0.02	0
0.1	0.01	0
0.11	0.01	0
0.11	0.02	0
0.1	0.02	0
0.11	0.01	0
0.12	0.01	0
0.12	0.02	0
0.11	0.02	0
0.12	0.01	0
0.13	0.01	0
0.13	0.02	0
0.12	0.02	0
0.13	0.01	0
0.14	0.01	0
0.14	0.02	0
0.13	0.02	0
0.14	0.01	0
0.15	0.01	0
0.15	0.02	0
0.14	0.02	0
0.15	0.01	0
0.16	0.01	0
0.16	0.02	0
0.15	0.02	0
0.16	0.01	0
0.17	0.01	0
0.17	0.02	0
0.16	0.02	0
0.17	0.01	0
0.18	0.01	0
0.18	0.02	0
0.17	0.02	0
0.18	0.01	0
0.19	0.01	0
0.19	0.02	0
0.18	0.02	0
0.19	0.01	0
0.2	0.01	0
0.2	0.02	0
0.19	0.02	0
0.2	0.01	0
0.21	0.01	0
0.21	0.02	0
0.2	0.02	0
0.21	0.01	0
0.22	0.01	0
0.22	0.02	0
0.21	0.02	0
0.22	0.01	0
0.23	0.01	0
0.23	0.02	0
0.22	0.02	0
0.23	0.01	0
0.24	0.01	0
0.24	0.02	0
0.23	0.02	0
0.24	0.01	0
0.25	0.01	0
0.25	0.02	0
0.24	0.02	0
0.25	0.01	0
0.26	0.01	0
0.26	0.02	0
0.25	0.02	0
0.26	0.01	0
0.27	0.01	0
0.27	0.02	0
0.26	0.02	0
0.27	0.01	0
0.28	0.01	0
0.28	0.02	0
0.27	0.02	0
0.28	0.01	0
0.29	0.01	0
0.29	0.02	0
0.28	0.02	0
0.29	0.01	0
0.3	0.01	0
0.3	0.02	0
0.29	0.02	0
0.3	0.01	0
0.31	0.01	0
0.31	0.02	0
0.3	0.02	0
0.31	0.01	0
0.32	0.01	0
0.32	0.02	0
0.31	0.02	0
0.32	0.01	0
0.33	0.01	0
0.33	0.02	0
0.32	0.02	0
0.33	0.01	0
0.34	0.01	0
0.34	0.02	0
0.33	0.02	0
0.34	0.01	0
0.35	0.01	0
0.35	0.02	0
0.34	0.02	0
0.35	0.01	0
0.36	0.01	0
0.36	0.02	0
0.35	0.02	0
0.36	0.01	0
0.37	0.01	0
0.37	0.02	0
0.36	0.02	0
0.37	0.01	0
0.38	0.01	0
0.38	0.02	0
0.37	0.02	0
0.38	0.01	0
0.39	0.01	0
0.39	0.02	0
0.38	0.02	0
0.39	0.01	0
0.4	0.01	0
0.4	0.02	0
0.39	0.02	0
0.4	0.01	0
0.41	0.01	0
0.41	0.02	0
0.4	0.02	0
0.41	0.01	0
0.42	0.01	0
0.42	0.02	0
0.41	0.02	0
0.42	0.01	0
0.43	0.01	0
0.43	0.02	0
0.42	0.02	0
0.43	0.01	0
0.44	0.01	0
0.44	0.02	0
0.43	0.02	0
0.44	0.01	0
0.45	0.01	0
0.45	0.02	0
0.44	0.02	0
0.45	0.01	0
0.46	0.01	0
0.46	0.02	0
0.45	0.02	0
0.46	0.01	0
0.47	0.01	0
0.47	0.02	0
0.46	0.02	0
0.47	0.01	0
0.48	0.01	0
0.48	0.02	0
0.47	0.02	0
0.48	0.01	0
0.49	0.01	0
0.49	0.02	0
0.48	0.02	0
0.49	0.01	0
0.5	0.01	0
0.5	0.02	0
0.49	0.02	0
0.5	0.01	0
0.51	0.01	0
0.51	0.02	0
0.5	0.02	0
0.51	0.01	0
0.52	0.01	0
0.52	0.02	0
0.51	0.02	0
0.52	0.01	0
0.53	0.01	0
0.53	0.02	0
0.52	0.02	0
0.53	0.01	0
0.54	0.01	0
0.54	0.02	0
0.53	0.02	0
0.54	0.01	0
0.55	0.01	0
0.55	0.02	0
0.54	0.02	0
0.55	0.01	0
0.56	0.01	0
0.56	0.02	0
0.55	0.02	0
0.56	0.01	0
0.57	0.01	0
0.57	0.02	0
0.56	0.02	0
0.57	0.01	0
0.58	0.01	0
0.58	0.02	0
0.57	0.02	0
0.58	0.01	0
0.59	0.01	0
0.59	0.02	0
0.58	0.02	0
0.59	0.01	0
0.6	0.01	0
0.6	0.02	0
0.59	0.02	0
0.6	0.01	0
0.61	0.01	0
0.61	0.02	0
0.6	0.02	0
0.61	0.01	0
0.62	0.01	0
0.62	0.02	0
0.61	0.02	0
0.62	0.01	0
0.63	0.01	0
0.63	0.02	0
0.62	0.02	0
0.63	0.01	0
0.64	0.01	0
0.64	0.02	0
0.63	0.02	0
0.64	0.01	0
0.65	0.01	0
0.65	0.02	0
0.64	0.02	0
0.65	0.01	0
0.66	0.01	0
0.66	0.02	0
0.65	0.02	0
0.66	0.01	0
0.67	0.01	0
0.67	0.02	0
0.66	0.02	0
0.67	0.01	0
0.68	0.01	0
0.68	0.02	0
0.67	0.02	0
0.68	0.01	0
0.69	0.01	0
0.69	0.02	0
0.68	0.02	0
0.69	0.01	0
0.7	0.01	0
0.7	0.02	0
0.69	0.02	0
0.7	0.01	0
0.71	0.01	0
0.71	0.02	0
0.7	0.02	0
0.71	0.01	0
0.72	0.01	0
0.72	0.02	0
0.71	0.02	0
0.72	0.01	0
0.73	0.01	0
0.73	0.02	0
0.72	0.02	0
0.73	0.01	0
0.74	0.01	0
0.74	0.02	0
0.73	0.02	0
0.74	0.01	0
0.75	0.01	0
0.75	0.02	0
0.74	0.02	0
0.75	0.01	0
0.76	0.01	0
0.76	0.02	0
0.75	0.02	0
0.76	0.01	0
0.77	0.01	0
0.77	0.02	0
0.76	0.02	0
0.77	0.01	0
0.78	0.01	0
0.78	0.02	0
0.77	0.02	0
0.78	0.01	0
0.79	0.01	0
0.79	0.02	0
0.78	0.02	0
0.79	0.01	0
0.8	0.01	0
0.8	0.02	0
0.79	0.02	0
0.8	0.01	0
0.81	0.01	0
0.81	0.02	0
0.8	0.02	0
0.81	0.01	0
0.82	0.01	0
0.82	0.02	0
0.81	0.02	0
0.82	0.01	0
0.83	0.01	0
0.83	0.02	0
0.82	0.02	0
0.83	0.01	0
0.84	0.01	0
0.84	0.02	0
0.83	0.02	0
0.84	0.01	0
0.85	0.01	0
0.85	0.02	0
0.84	0.02	0
0.85	0.01	0
0.86	0.01	0
0.86	0.02	0
0.85	0.02	0
0.86	0.01	0
0.87	0.01	0
0.87	0.02	0
0.86	0.02	0
0.87	0.01	0
0.88	0.01	0
0.88	0.02	0
0.87	0.02	0
0.88	0.01	0
0.89	0.01	0
0.89	0.02	0
0.88	0.02	0
0.89	0.01	0
0.9	0.01	0
0.9	0.02	0
0.89	0.02	0
0.9	0.01	0
0.91	0.01	0
0.91	0.02	0
0.9	0.02	0
0.91	0.01	0
0.92	0.01	0
0.92	0.02	0
0.91	0.02	0
0.92	0.01	0
0.93	0.01	0
0.93	0.02	0
0.92	0.02	0
0.93	0.01	0
0.94	0.01	0
0.94	0.02	0
0.93	0.02	0
0.94	0.01	0
0.95	0.01	0
0.95	0.02	0
0.94	0.02	0
0.95	0.01	0
0.96	0.01	0
0.96	0.02	0
0.95	0.02	0
0.96	0.01	0
0.97	0.01	0
0.97	0.02	0
0.96	0.02	0
0.97	0.01	0
0.98	0.01	0
0.98	0.02	0
0.97	0.02	0
0.98	0.01	0
0.99	0.01	0
0.99	0.02	0
0.98	0.02	0
0.99	0.01	0
1	0.01	0
1	0.02	0
0.99	0.02	0
0	0.02	0
0.01	0.02	0
0.01	0.03	0
0	0.03	0
0.01	0.02	0
0.02	0.02	0
0.02	0.03	0
0.01	0.03	0
0.02	0.02	0
0.03	0.02	0
0.03	0.03	0
0.02	0.03	0
0.03	0.02	0
0.04	0.02	0
0.04	0.03	0
0.03	0.03	0
0.04	0.02	0
0.05	0.02	0
0.05	0.03	0
0.04	0.03	0
0.05	0.02	0
0.06	0.02	0
0.06	0.03	0
0.05	0.03	0
0.06	0.02	0
0.07	0.02	0
0.07	0.03	0
0.06	0.03	0
0.07	0.02	0
0.08	0.02	0
0.08	0.03	0
0.07	0.03	0
0.08	0.02	0
0.09	0.02	0
0.09	0.03	0
0.08	0.03	0
0.09	0.02	0
0.1	0.02	0
0.1	0.03	0
0.09	0.03	0
0.1	0.02	0
0.11	0.02	0
0.11	0.03	0
0.1	0.03	0
0.11	0.02	0
0.12	0.02	0
0.12	0.03	0
0.11	0.03	0
0.12	0.02	0
0.13	0.02	0
0.13	0.03	0
0.12	0.03	0
0.13	0.02	0
0.14	0.02	0
0.14	0.03	0
0.13	0.03	0
0.14	0.02	0
0.15	0.02	0
0.15	0.03	0
0.14	0.03	0
0.15	0.02	0
0.16	0.02	0
0.16	0.03	0
0.15	0.03	0
0.16	0.02	0
0.17	0.02	0
0.17	0.03	0
0.16	0.03	0
0.17	0.02	0
0.18	0.02	0
0.18	0.03	0
0.17	0.03	0
0.18	0.02	0
0.19	0.02	0
0.19	0.03	0
0.18	0.03	0
0.19	0.02	0
0.2	0.02	0
0.2	0.03	0
[...]
POINT_DATA 40000
SCALARS dg1 DOUBLE 
LOOKUP_TABLE default
-2.87195e-84
2.20046e-84
7.27288e-84
2.20046e-84
-4.46433e-83
3.41147e-83
1.13648e-82
3.48896e-83
-6.66661e-82
5.08039e-82
1.70627e-81
5.31567e-82
-9.56361e-81
7.26738e-81
2.46132e-80
7.78216e-81
-1.31797e-79
9.9857e-80
3.41131e-79
1.09477e-79
-1.74483e-78
1.31794e-78
4.54264e-78
1.47987e-78
-2.21902e-77
1.6708e-77
5.81204e-77
1.92223e-77
-2.71099e-76
2.03451e-76
7.14469e-76
2.39919e-76
-3.18166e-75
2.37956e-75
8.43862e-75
2.87741e-75
-3.58701e-74
2.67319e-74
9.57622e-74
3.31601e-74
-3.88476e-73
2.88439e-73
1.04412e-72
3.67205e-73
-4.04152e-72
2.98925e-72
1.09381e-71
3.90731e-72
-4.03898e-71
2.97543e-71
1.10095e-70
3.99506e-71
-3.8774e-70
2.84451e-70
1.0647e-69
3.92504e-70
-3.57561e-69
2.61175e-69
9.89281e-69
3.70545e-69
-3.16736e-68
2.30309e-68
8.83179e-68
3.36134e-68
-2.69511e-67
1.95047e-67
7.57552e-67
2.92994e-67
-2.20286e-66
1.58638e-66
6.24326e-66
2.45403e-66
-1.7295e-65
1.2391e-65
4.94363e-65
1.97503e-65
-1.3043e-64
9.29446e-65
3.7611e-64
1.52736e-64
-9.44826e-64
6.69504e-64
2.74929e-63
1.13496e-63
-6.57414e-63
4.63107e-63
1.93091e-62
8.10384e-63
-4.39374e-62
3.07606e-62
1.30298e-61
5.55999e-62
-2.82054e-61
1.96193e-61
8.44793e-61
3.66546e-61
-1.73912e-60
1.20151e-60
5.26258e-60
2.32195e-60
-1.02995e-59
7.06511e-60
3.14981e-59
1.41334e-59
-5.8586e-59
3.98874e-59
1.81136e-58
8.26631e-59
-3.20073e-58
2.16203e-58
1.00084e-57
4.64563e-58
-1.67949e-57
1.12506e-57
5.31324e-57
2.50869e-57
-8.46397e-57
5.62029e-57
2.71014e-56
1.30172e-56
-4.09665e-56
2.69517e-56
1.32819e-55
6.49013e-56
-1.9043e-55
1.2406e-55
6.25416e-55
3.10926e-55
-8.50124e-55
5.4811e-55
2.82953e-54
1.43129e-54
-3.64472e-54
2.32415e-54
1.22998e-53
6.33088e-54
-1.50062e-53
9.45767e-54
5.13709e-53
2.69071e-53
-5.93318e-53
3.69311e-53
2.06147e-52
1.09884e-52
-2.25273e-52
1.38371e-52
7.94829e-52
4.31186e-52
-8.21333e-52
4.97385e-52
2.94449e-51
1.62577e-51
-2.87546e-51
1.71508e-51
1.04806e-50
5.89003e-51
-9.66626e-51
5.67232e-51
3.58426e-50
2.0504e-50
-3.12003e-50
1.79908e-50
1.17775e-49
6.8584e-50
-9.66918e-50
5.47114e-50
3.71832e-49
2.20429e-49
-2.87697e-49
1.59497e-49
1.12792e-48
6.8073e-49
-8.2182e-49
4.45625e-49
3.2874e-48
2.01996e-48
-2.25368e-48
1.19292e-48
9.20591e-48
5.75931e-48
-5.9328e-48
3.05869e-48
2.47697e-47
1.57782e-47
-1.49918e-47
7.50887e-48
6.40348e-47
4.15342e-47
-3.63619e-47
1.76413e-47
1.59057e-46
1.05054e-46
-8.46463e-47
3.96422e-47
3.79604e-46
2.55315e-46
-1.89106e-46
8.51461e-47
8.70461e-46
5.96209e-46
-4.05417e-46
1.74655e-46
1.91783e-45
1.33776e-45
-8.3398e-46
3.41776e-46
4.05989e-45
2.88413e-45
-1.64597e-45
6.37155e-46
8.25772e-45
5.9746e-45
-3.11635e-45
1.12953e-45
1.6138e-44
1.18921e-44
-5.65944e-45
1.89942e-45
3.03027e-44
2.27438e-44
-9.85682e-45
3.01916e-45
5.46708e-44
4.17949e-44
-1.64612e-44
4.51281e-45
9.47708e-44
7.37968e-44
-2.63548e-44
6.2919e-45
1.57847e-43
1.25201e-43
-4.04423e-44
8.07063e-45
2.52607e-43
2.04094e-43
-5.94666e-44
9.27611e-45
3.88415e-43
3.19673e-43
-8.376e-44
8.98397e-45
5.73843e-43
4.81099e-43
-1.12971e-43
5.9208e-45
8.14582e-43
6.9569e-43
-1.45841e-43
-1.42478e-45
1.11102e-42
9.66605e-43
-1.80111e-43
-1.4559e-44
1.45598e-42
1.29043e-42
-2.12655e-43
-3.46221e-44
1.83331e-42
1.65528e-42
-2.39849e-43
-6.19749e-44
2.218e-42
2.04013e-42
-2.58163e-43
-9.58413e-44
2.57831e-42
2.41599e-42
-2.64844e-43
-1.34135e-43
2.87976e-42
2.74905e-42
-2.58522e-43
-1.73572e-43
3.09047e-42
3.00552e-42
-2.3957e-43
-2.10099e-43
3.1867e-42
3.15723e-42
-2.10099e-43
-2.3957e-43
3.15723e-42
3.1867e-42
-1.73572e-43
-2.58522e-43
3.00552e-42
3.09047e-42
-1.34135e-43
-2.64844e-43
2.74905e-42
2.87976e-42
-9.58413e-44
-2.58163e-43
2.41599e-42
2.57831e-42
-6.19749e-44
-2.39849e-43
2.04013e-42
2.218e-42
-3.46221e-44
-2.12655e-43
1.65528e-42
1.83331e-42
-1.4559e-44
-1.80111e-43
1.29043e-42
1.45598e-42
-1.42478e-45
-1.45841e-43
9.66605e-43
1.11102e-42
5.9208e-45
-1.12971e-43
6.9569e-43
8.14582e-43
8.98397e-45
-8.376e-44
4.81099e-43
5.73843e-43
9.27611e-45
-5.94666e-44
3.19673e-43
3.88415e-43
8.07063e-45
-4.04423e-44
2.04094e-43
2.52607e-43
6.2919e-45
-2.63548e-44
1.25201e-43
1.57847e-43
4.51281e-45
-1.64612e-44
7.37968e-44
9.47708e-44
3.01916e-45
-9.85682e-45
4.17949e-44
5.46708e-44
1.89942e-45
-5.65944e-45
2.27438e-44
3.03027e-44
1.12953e-45
-3.11635e-45
1.18921e-44
1.6138e-44
6.37155e-46
-1.64597e-45
5.9746e-45
8.25772e-45
3.41776e-46
-8.3398e-46
2.88413e-45
4.05989e-45
1.74655e-46
-4.05417e-46
1.33776e-45
1.91783e-45
8.51461e-47
-1.89106e-46
5.96209e-46
8.70461e-46
3.96422e-47
-8.46463e-47
2.55315e-46
3.79604e-46
1.76413e-47
-3.63619e-47
1.05054e-46
1.59057e-46
7.50887e-48
-1.49918e-47
4.15342e-47
6.40348e-47
3.05869e-48
-5.9328e-48
1.57782e-47
2.47697e-47
1.19292e-48
-2.25368e-48
5.75931e-48
9.20591e-48
4.45625e-49
-8.2182e-49
2.01996e-48
3.2874e-48
1.59497e-49
-2.87697e-49
6.8073e-49
1.12792e-48
5.47114e-50
-9.66918e-50
2.20429e-49
3.71832e-49
1.79908e-50
-3.12003e-50
6.8584e-50
1.17775e-49
-4.46433e-83
3.48896e-83
1.13648e-82
3.41147e-83
-6.93909e-82
5.40976e-82
1.77586e-81
5.40976e-82
-1.03614e-80
8.05732e-81
2.66619e-80
8.24317e-81
-1.48628e-79
1.15274e-79
3.84597e-79
1.20695e-79
-2.04808e-78
1.58414e-78
5.33033e-78
1.69811e-78
-2.71117e-77
2.09109e-77
7.09799e-77
2.29573e-77
-3.44767e-76
2.65136e-76
9.08136e-76
2.98232e-76
-4.21167e-75
3.22904e-75
1.11635e-74
3.72277e-75
-4.9424e-74
3.77731e-74
1.31851e-73
4.46535e-74
-5.57153e-73
4.24415e-73
1.49623e-72
5.14661e-73
-6.03339e-72
4.5803e-72
1.63135e-71
5.69986e-72
-6.27618e-71
4.74771e-71
1.70896e-70
6.06574e-71
-6.27154e-70
4.72669e-70
1.72009e-69
6.20268e-70
-6.01997e-69
4.51965e-69
1.66343e-68
6.09467e-69
-5.55077e-68
4.1507e-68
1.54558e-67
5.75434e-68
-4.91639e-67
3.66099e-67
1.37979e-66
5.22055e-67
-4.18283e-66
3.1012e-66
1.18351e-65
4.55104e-66
-3.41839e-65
2.52293e-65
9.75354e-65
3.81222e-65
-2.68347e-64
1.97113e-64
7.72306e-64
3.06845e-64
-2.02345e-63
1.47895e-63
5.87559e-63
2.37319e-63
-1.46555e-62
1.06563e-62
4.29486e-62
1.76367e-62
-1.01958e-61
7.37339e-62
3.01635e-61
1.25943e-61
-6.81313e-61
4.89914e-61
2.0354e-60
8.64175e-61
-4.37293e-60
3.12574e-60
1.31964e-59
5.69771e-60
-2.69583e-59
1.91493e-59
8.22044e-59
3.60968e-59
-1.59625e-58
1.12644e-58
4.92008e-58
2.19739e-58
-9.07809e-58
6.36203e-58
2.82934e-57
1.28533e-57
-4.95865e-57
3.44988e-57
1.56327e-56
7.22418e-57
-2.60137e-56
1.79603e-56
8.2989e-56
3.9015e-56
-1.3107e-55
8.97641e-56
4.23296e-55
2.02462e-55
-6.34247e-55
4.30675e-55
2.07445e-54
1.00953e-54
-2.94754e-54
1.98349e-54
9.76791e-54
4.83687e-54
-1.31553e-53
8.76835e-54
4.41913e-53
2.22677e-53
-5.63854e-53
3.72034e-53
1.92092e-52
9.85031e-53
-2.32087e-52
1.51493e-52
8.02268e-52
4.18688e-52
-9.17368e-52
5.91986e-52
3.21935e-51
1.70999e-51
-3.48202e-51
2.21972e-51
1.24124e-50
6.71063e-51
-1.26912e-50
7.98566e-51
4.59812e-50
2.53043e-50
-4.44162e-50
2.75612e-50
1.63661e-49
9.16832e-50
-1.49258e-49
9.12435e-50
5.59689e-49
3.19188e-49
-4.81582e-49
2.89709e-49
1.83903e-48
1.06774e-48
-1.49186e-48
8.82069e-49
5.80591e-48
3.43199e-48
-4.43698e-48
2.5748e-48
1.76113e-47
1.05995e-47
-1.26687e-47
7.20424e-48
5.13278e-47
3.14549e-47
-3.47245e-47
1.93164e-47
1.43732e-46
8.9691e-47
-9.13649e-47
4.9617e-47
3.86718e-46
2.45736e-46
-2.30746e-46
1.22053e-46
9.99716e-46
6.46917e-46
-5.59334e-46
2.87408e-46
2.48313e-45
1.63639e-45
-1.30124e-45
6.47537e-46
5.92602e-45
3.97724e-45
-2.9051e-45
1.39503e-45
1.35884e-44
9.28827e-45
-6.22358e-45
2.87165e-45
2.99375e-44
2.08423e-44
-1.27924e-44
5.64287e-45
6.3373e-44
4.49377e-44
-2.52258e-44
1.05723e-44
1.28895e-43
9.30966e-44
-4.77164e-44
1.88569e-44
2.51889e-43
1.85315e-43
-8.65676e-44
3.19514e-44
4.72961e-43
3.54442e-43
-1.50605e-43
5.12842e-44
8.53266e-43
6.51377e-43
-2.51209e-43
7.76527e-44
1.47906e-42
1.1502e-42
-4.01654e-43
1.1023e-43
2.46339e-42
1.95151e-42
-6.15437e-43
1.45222e-43
3.94206e-42
3.1814e-42
-9.03446e-43
1.74404e-43
6.06119e-42
4.98334e-42
-1.27017e-42
1.84009e-43
8.95442e-42
7.50024e-42
-1.70957e-42
1.54603e-43
1.27105e-41
1.08463e-41
-2.20174e-42
6.26316e-44
1.73353e-41
1.50709e-41
-2.71173e-42
-1.15954e-43
2.27167e-41
2.01209e-41
-3.19164e-42
-4.0018e-43
2.86027e-41
2.58112e-41
-3.58655e-42
-7.97585e-43
3.4603e-41
3.1814e-41
-3.84361e-42
-1.29848e-42
4.02223e-41
3.76772e-41
-3.92242e-42
-1.87296e-42
4.49229e-41
4.28735e-41
-3.80418e-42
-2.47221e-42
4.82077e-41
4.68757e-41
-3.49687e-42
-3.03478e-42
4.97063e-41
4.92442e-41
-3.03478e-42
-3.49687e-42
4.92442e-41
4.97063e-41
-2.47221e-42
-3.80418e-42
4.68757e-41
4.82077e-41
-1.87296e-42
-3.92242e-42
4.28735e-41
4.49229e-41
-1.29848e-42
-3.84361e-42
3.76772e-41
4.02223e-41
-7.97585e-43
-3.58655e-42
3.1814e-41
3.4603e-41
-4.0018e-43
-3.19164e-42
2.58112e-41
2.86027e-41
-1.15954e-43
-2.71173e-42
2.01209e-41
2.27167e-41
6.26316e-44
-2.20174e-42
1.50709e-41
1.73353e-41
1.54603e-43
-1.70957e-42
1.08463e-41
1.27105e-41
1.84009e-43
-1.27017e-42
7.50024e-42
8.95442e-42
1.74404e-43
-9.03446e-43
4.98334e-42
6.06119e-42
1.45222e-43
-6.15437e-43
3.1814e-42
3.94206e-42
1.1023e-43
-4.01654e-43
1.95151e-42
2.46339e-42
7.76527e-44
-2.51209e-43
1.1502e-42
1.47906e-42
5.12842e-44
-1.50605e-43
6.51377e-43
8.53266e-43
3.19514e-44
-8.65676e-44
3.54442e-43
4.72961e-43
1.88569e-44
-4.77164e-44
1.85315e-43
2.51889e-43
1.05723e-44
-2.52258e-44
9.30966e-44
1.28895e-43
5.64287e-45
-1.27924e-44
4.49377e-44
6.3373e-44
2.87165e-45
-6.22358e-45
2.08423e-44
2.99375e-44
1.39503e-45
-2.9051e-45
9.28827e-45
1.35884e-44
6.47537e-46
-1.30124e-45
3.97724e-45
5.92602e-45
2.87408e-46
-5.59334e-46
1.63639e-45
2.48313e-45
1.22053e-46
-2.30746e-46
6.46917e-46
9.99716e-46
4.9617e-47
-9.13649e-47
2.45736e-46
3.86718e-46
1.93164e-47
-3.47245e-47
8.9691e-47
1.43732e-46
7.20424e-48
-1.26687e-47
3.14549e-47
5.13278e-47
2.5748e-48
-4.43698e-48
1.05995e-47
1.76113e-47
8.82069e-49
-1.49186e-48
3.43199e-48
5.80591e-48
2.89709e-49
-4.81582e-49
1.06774e-48
1.83903e-48
-6.66661e-82
5.31567e-82
1.70627e-81
5.08039e-82
-1.03614e-80
8.24317e-81
2.66619e-80
8.05732e-81
-1.54703e-79
1.2279e-79
4.00283e-79
1.2279e-79
-2.21893e-78
1.75696e-78
5.774e-78
1.79811e-78
-3.05741e-77
2.41482e-77
8.00239e-77
2.53016e-77
-4.04692e-76
3.18808e-76
1.0656e-75
3.42103e-76
-5.14582e-75
4.04288e-75
1.36334e-74
4.44473e-75
-6.28552e-74
4.92452e-74
1.6759e-73
5.54895e-74
-7.37534e-73
5.76162e-73
1.97936e-72
6.65662e-73
-8.31331e-72
6.47482e-72
2.24613e-71
7.67314e-72
-9.0015e-71
6.98889e-71
2.44894e-70
8.49902e-71
-9.36271e-70
7.24569e-70
2.56541e-69
9.04567e-70
-9.35472e-69
7.21501e-69
2.58207e-68
9.25098e-69
-8.97842e-68
6.90039e-68
2.49698e-67
9.09096e-68
-8.27761e-67
6.33844e-67
2.32004e-66
8.58432e-67
-7.33066e-66
5.59187e-66
2.07114e-65
7.7889e-66
-6.23606e-65
4.73793e-65
1.77648e-64
6.79079e-65
-5.09568e-64
3.85541e-64
1.46401e-63
5.68901e-64
-3.99959e-63
3.01296e-63
1.15921e-62
4.57959e-63
-3.01541e-62
2.26125e-62
8.81897e-62
3.54232e-62
-2.18368e-61
1.62977e-61
6.44626e-61
2.63281e-61
-1.51893e-60
1.12801e-60
4.52723e-60
1.88029e-60
-1.01482e-59
7.49726e-60
3.05487e-59
1.29032e-59
-6.51239e-59
4.78497e-59
1.98056e-58
8.50829e-59
-4.01404e-58
2.93245e-58
1.23373e-57
5.39083e-58
-2.37634e-57
1.72562e-57
7.38395e-57
3.282e-57
-1.35119e-56
9.74996e-57
4.24613e-56
1.91995e-56
-7.37894e-56
5.28921e-56
2.34603e-55
1.07921e-55
-3.87024e-55
2.7548e-55
1.2454e-54
5.829e-55
-1.94958e-54
1.37747e-54
6.3522e-54
3.02515e-54
-9.43176e-54
6.61217e-54
3.11297e-53
1.50857e-53
-4.38214e-53
3.04687e-53
1.46576e-52
7.22857e-53
-1.95529e-52
1.34768e-52
6.63112e-52
3.32815e-52
-8.37837e-52
5.72156e-52
2.88237e-51
1.47237e-51
-3.44762e-51
2.33134e-51
1.20379e-50
6.2589e-51
-1.36232e-50
9.11646e-51
4.83044e-50
2.55648e-50
-5.16925e-50
3.4209e-50
1.86236e-49
1.00334e-49
-1.88344e-49
1.2317e-49
6.89885e-49
3.78372e-49
-6.58925e-49
4.25473e-49
2.45544e-48
1.37104e-48
-2.21344e-48
1.40991e-48
8.39693e-48
4.77358e-48
-7.13885e-48
4.48129e-48
2.75899e-47
1.59698e-47
-2.21055e-47
1.36596e-47
8.71003e-47
5.13352e-47
-6.57152e-47
3.9923e-47
2.64197e-46
1.58559e-46
-1.87544e-46
1.11858e-46
7.69975e-46
4.70573e-46
-5.13791e-46
3.00381e-46
2.15608e-45
1.34191e-45
-1.35112e-45
7.72889e-46
5.80086e-45
3.67685e-45
-3.41033e-45
1.90487e-45
1.49955e-44
9.68029e-45
-8.2616e-45
4.49526e-45
3.72452e-44
2.44883e-44
-1.92071e-44
1.01529e-44
8.88832e-44
5.95232e-44
-4.28502e-44
2.19349e-44
2.03803e-43
1.39018e-43
-9.17267e-44
4.53005e-44
4.48996e-43
3.11969e-43
-1.88384e-43
8.93588e-44
9.50422e-43
6.7268e-43
-3.71144e-43
1.68185e-43
1.933e-42
1.39367e-42
-7.01351e-43
3.0163e-43
3.77738e-42
2.77439e-42
-1.27103e-42
5.14561e-43
7.09236e-42
5.30677e-42
-2.20863e-42
8.32988e-43
1.27948e-41
9.75318e-42
-3.67921e-42
1.27536e-42
2.21779e-41
1.72233e-41
-5.87417e-42
1.83779e-42
3.69359e-41
2.9224e-41
-8.98634e-42
2.4736e-42
5.91047e-41
4.76448e-41
-1.31682e-41
3.07053e-42
9.08739e-41
7.46352e-41
-1.84762e-41
3.43224e-42
1.34246e-40
1.12337e-40
-2.48112e-41
3.27406e-42
1.90549e-40
1.62464e-40
-3.18712e-41
2.24339e-42
2.5987e-40
2.25756e-40
-3.91363e-41
-2.8747e-44
3.40528e-40
3.0142e-40
-4.59022e-41
-3.84654e-42
4.2874e-40
3.86685e-40
-5.13705e-41
-9.35233e-42
5.18659e-40
4.76641e-40
-5.47827e-41
-1.64382e-41
6.02858e-40
5.64514e-40
-5.5573e-41
-2.46962e-41
6.73279e-40
6.42403e-40
-5.34993e-41
-3.34321e-41
7.22474e-40
7.02407e-40
-4.87144e-41
-4.17527e-41
7.44898e-40
7.37936e-40
-4.17527e-41
-4.87144e-41
7.37936e-40
7.44898e-40
-3.34321e-41
-5.34993e-41
7.02407e-40
7.22474e-40
-2.46962e-41
-5.5573e-41
6.42403e-40
6.73279e-40
-1.64382e-41
-5.47827e-41
5.64514e-40
6.02858e-40
-9.35233e-42
-5.13705e-41
4.76641e-40
5.18659e-40
-3.84654e-42
-4.59022e-41
3.86685e-40
4.2874e-40
-2.8747e-44
-3.91363e-41
3.0142e-40
3.40528e-40
2.24339e-42
-3.18712e-41
2.25756e-40
2.5987e-40
3.27406e-42
-2.48112e-41
1.62464e-40
1.90549e-40
3.43224e-42
-1.84762e-41
1.12337e-40
1.34246e-40
3.07053e-42
-1.31682e-41
7.46352e-41
9.08739e-41
2.4736e-42
-8.98634e-42
4.76448e-41
5.91047e-41
1.83779e-42
-5.87417e-42
2.9224e-41
3.69359e-41
1.27536e-42
-3.67921e-42
1.72233e-41
2.21779e-41
8.32988e-43
-2.20863e-42
9.75318e-42
1.27948e-41
5.14561e-43
-1.27103e-42
5.30677e-42
7.09236e-42
3.0163e-43
-7.01351e-43
2.77439e-42
3.77738e-42
1.68185e-43
-3.71144e-43
1.39367e-42
1.933e-42
8.93588e-44
-1.88384e-43
6.7268e-43
9.50422e-43
4.53005e-44
-9.17267e-44
3.11969e-43
4.48996e-43
2.19349e-44
-4.28502e-44
1.39018e-43
2.03803e-43
1.01529e-44
-1.92071e-44
5.95232e-44
8.88832e-44
4.49526e-45
-8.2616e-45
2.44883e-44
3.72452e-44
1.90487e-45
-3.41033e-45
9.68029e-45
1.49955e-44
7.72889e-46
-1.35112e-45
3.67685e-45
5.80086e-45
3.00381e-46
-5.13791e-46
1.34191e-45
2.15608e-45
1.11858e-46
-1.87544e-46
4.70573e-46
7.69975e-46
3.9923e-47
-6.57152e-47
1.58559e-46
2.64197e-46
1.36596e-47
-2.21055e-47
5.13352e-47
8.71003e-47
4.48129e-48
-7.13885e-48
1.59698e-47
2.75899e-47
-9.56361e-81
7.78216e-81
2.46132e-80
7.26738e-81
-1.48628e-79
1.20695e-79
3.84597e-79
1.15274e-79
-2.21893e-78
1.79811e-78
5.774e-78
1.75696e-78
-3.18238e-77
2.57319e-77
8.32877e-77
2.57319e-77
-4.38454e-76
3.53717e-76
1.1543e-75
3.62128e-76
-5.80303e-75
4.6705e-75
1.53705e-74
4.89698e-75
-7.37808e-74
5.92366e-74
1.96649e-73
6.36317e-74
-9.01129e-73
7.21658e-73
2.41729e-72
7.94502e-73
-1.05726e-71
8.44467e-72
2.85495e-71
9.53221e-72
-1.1916e-70
9.49161e-71
3.23968e-70
1.09893e-70
-1.2901e-69
1.0247e-69
3.53216e-69
1.21736e-69
-1.34172e-68
1.06255e-68
3.70008e-68
1.29582e-68
-1.34041e-67
1.05825e-67
3.72406e-67
1.32539e-67
-1.28634e-66
1.01231e-66
3.60127e-66
1.30263e-66
-1.18578e-65
9.30068e-66
3.34603e-65
1.23018e-65
-1.04999e-64
8.207e-65
2.98702e-64
1.11633e-64
-8.93085e-64
6.95531e-64
2.56201e-63
9.73389e-64
-7.29665e-63
5.66113e-63
2.11133e-62
8.15556e-63
-5.72628e-62
4.42523e-62
1.67174e-61
6.56589e-62
-4.31654e-61
3.32205e-61
1.27179e-60
5.0793e-61
-3.12542e-60
2.39499e-60
9.29601e-60
3.7756e-60
-2.17363e-59
1.65814e-59
6.5285e-59
2.69673e-59
-1.45199e-58
1.10241e-58
4.4052e-58
1.8508e-58
-9.31609e-58
7.03819e-58
2.85597e-57
1.22054e-57
-5.74107e-57
4.31481e-57
1.779e-56
7.73414e-57
-3.39808e-56
2.53999e-56
1.06472e-55
4.70913e-56
-1.93175e-55
1.43568e-55
6.12252e-55
2.7551e-55
-1.05472e-54
7.79149e-55
3.38268e-54
1.54882e-54
-5.53072e-54
4.05982e-54
1.79568e-53
8.36626e-54
-2.78536e-53
2.03094e-53
9.15868e-53
4.34238e-53
-1.34718e-52
9.75369e-53
4.48821e-52
2.16566e-52
-6.25758e-52
4.4968e-52
2.11325e-51
1.03781e-51
-2.79134e-51
1.9901e-51
9.56017e-51
4.77872e-51
-1.19574e-50
8.45392e-51
4.15544e-50
2.11431e-50
-4.91887e-50
3.44686e-50
1.73543e-49
8.98854e-50
-1.94306e-49
1.34877e-49
6.96359e-49
3.67175e-49
-7.37038e-49
5.06488e-49
2.68471e-48
1.44118e-48
-2.68448e-48
1.82505e-48
9.94489e-48
5.43536e-48
-9.38822e-48
6.30974e-48
3.53949e-47
1.96969e-47
-3.15241e-47
2.09282e-47
1.21038e-46
6.85852e-47
-1.0163e-46
6.65854e-47
3.97684e-46
2.29468e-46
-3.14559e-46
2.03185e-46
1.25544e-45
7.37693e-46
-9.34677e-46
5.94562e-46
3.80794e-45
2.2787e-45
-2.66612e-45
1.66808e-45
1.10975e-44
6.76331e-45
-7.30015e-45
4.48596e-45
3.10742e-44
1.92881e-44
-1.91863e-44
1.15613e-44
8.36016e-44
5.2854e-44
-4.8398e-44
2.85459e-44
2.16107e-43
1.39163e-43
-1.17168e-43
6.75025e-44
5.3674e-43
3.52069e-43
-2.72208e-43
1.52813e-43
1.28085e-42
8.55832e-43
-6.06824e-43
3.31018e-43
2.93681e-42
1.99897e-42
-1.29792e-42
6.85711e-43
6.46983e-42
4.48619e-42
-2.66323e-42
1.35742e-42
1.36947e-41
9.674e-42
-5.2419e-42
2.56553e-42
2.78517e-41
2.00442e-41
-9.89519e-42
4.62417e-42
5.44243e-41
3.9905e-41
-1.79119e-41
7.93659e-42
1.02183e-40
7.63341e-41
-3.10857e-41
1.29454e-41
1.84333e-40
1.40302e-40
-5.17111e-41
2.00122e-41
3.19501e-40
2.47778e-40
-8.24333e-41
2.92065e-41
5.32089e-40
4.2045e-40
-1.25889e-40
4.00072e-41
8.51412e-40
6.85516e-40
-1.84115e-40
5.09598e-41
1.309e-39
1.07392e-39
-2.57765e-40
5.93849e-41
1.93367e-39
1.61652e-39
-3.45286e-40
6.12814e-41
2.74454e-39
2.33797e-39
-4.42273e-40
5.15774e-41
3.74283e-39
3.24898e-39
-5.41294e-40
2.48343e-41
4.9043e-39
4.33817e-39
-6.32415e-40
-2.36092e-41
6.17445e-39
5.56565e-39
-7.045e-40
-9.6237e-41
7.46905e-39
6.86079e-39
-7.47127e-40
-1.92046e-40
8.68118e-39
8.12609e-39
-7.52734e-40
-3.05756e-40
9.69477e-39
9.2478e-39
-7.1842e-40
-4.27923e-40
1.04026e-38
1.01121e-38
-6.46874e-40
-5.46094e-40
1.0725e-38
1.06242e-38
-5.46094e-40
-6.46874e-40
1.06242e-38
1.0725e-38
-4.27923e-40
-7.1842e-40
1.01121e-38
1.04026e-38
-3.05756e-40
-7.52734e-40
9.2478e-39
9.69477e-39
-1.92046e-40
-7.47127e-40
8.12609e-39
8.68118e-39
-9.6237e-41
-7.045e-40
6.86079e-39
7.46905e-39
-2.36092e-41
-6.32415e-40
5.56565e-39
6.17445e-39
2.48343e-41
-5.41294e-40
4.33817e-39
4.9043e-39
5.15774e-41
-4.42273e-40
3.24898e-39
3.74283e-39
6.12814e-41
-3.45286e-40
2.33797e-39
2.74454e-39
5.93849e-41
-2.57765e-40
1.61652e-39
1.93367e-39
5.09598e-41
-1.84115e-40
1.07392e-39
1.309e-39
4.00072e-41
-1.25889e-40
6.85516e-40
8.51412e-40
2.92065e-41
-8.24333e-41
4.2045e-40
5.32089e-40
2.00122e-41
-5.17111e-41
2.47778e-40
3.19501e-40
1.29454e-41
-3.10857e-41
1.40302e-40
1.84333e-40
7.93659e-42
-1.79119e-41
7.63341e-41
1.02183e-40
4.62417e-42
-9.89519e-42
3.9905e-41
5.44243e-41
2.56553e-42
-5.2419e-42
2.00442e-41
2.78517e-41
1.35742e-42
-2.66323e-42
9.674e-42
1.36947e-41
6.85711e-43
-1.29792e-42
4.48619e-42
6.46983e-42
3.31018e-43
-6.06824e-43
1.99897e-42
2.93681e-42
1.52813e-43
-2.72208e-43
8.55832e-43
1.28085e-42
6.75025e-44
-1.17168e-43
3.52069e-43
5.3674e-43
2.85459e-44
-4.8398e-44
1.39163e-43
2.16107e-43
1.15613e-44
-1.91863e-44
5.2854e-44
8.36016e-44
4.48596e-45
-7.30015e-45
1.92881e-44
3.10742e-44
1.66808e-45
-2.66612e-45
6.76331e-45
1.10975e-44
5.94562e-46
-9.34677e-46
2.2787e-45
3.80794e-45
2.03185e-46
-3.14559e-46
7.37693e-46
1.25544e-45
6.65854e-47
-1.0163e-46
2.29468e-46
3.97684e-46
-1.31797e-79
1.09477e-79
3.41131e-79
9.9857e-80
-2.04808e-78
1.69811e-78
5.33033e-78
1.58414e-78
-3.05741e-77
2.53016e-77
8.00239e-77
2.41482e-77
-4.38454e-76
3.62128e-76
1.1543e-75
3.53717e-76
-6.04025e-75
4.97858e-75
1.59974e-74
4.97858e-75
-7.99363e-74
6.57468e-74
2.13017e-73
6.73336e-74
-1.01623e-72
8.34e-73
2.72528e-72
8.75055e-73
-1.24105e-71
1.01619e-71
3.34998e-71
1.09274e-71
-1.45593e-70
1.18931e-70
3.95645e-70
1.31121e-70
-1.64074e-69
1.33699e-69