# vtk DataFile Version 2.0
dg(1) output generated by Nextsim
ASCII
DATASET UNSTRUCTURED_GRID
FIELD FieldData 1
TIME 1 1 double
0
POINTS 40000 DOUBLE
0	0	0
0.01	0	0
0.01	0.01	0
0	0.01	0
0.01	0	0
0.02	0	0
0.02	0.01	0
0.01	0.01	0
0.02	0	0
0.03	0	0
0.03	0.01	0
0.02	0.01	0
0.03	0	0
0.04	0	0
0.04	0.01	0
0.03	0.01	0
0.04	0	0
0.05	0	0
0.05	0.01	0
0.04	0.01	0
0.05	0	0
0.06	0	0
0.06	0.01	0
0.05	0.01	0
0.06	0	0
0.07	0	0
0.07	0.01	0
0.06	0.01	0
0.07	0	0
0.08	0	0
0.08	0.01	0
0.07	0.01	0
0.08	0	0
0.09	0	0
0.09	0.01	0
0.08	0.01	0
0.09	0	0
0.1	0	0
0.1	0.01	0
0.09	0.01	0
0.1	0	0
0.11	0	0
0.11	0.01	0
0.1	0.01	0
0.11	0	0
0.12	0	0
0.12	0.01	0
0.11	0.01	0
0.12	0	0
0.13	0	0
0.13	0.01	0
0.12	0.01	0
0.13	0	0
0.14	0	0
0.14	0.01	0
0.13	0.01	0
0.14	0	0
0.15	0	0
0.15	0.01	0
0.14	0.01	0
0.15	0	0
0.16	0	0
0.16	0.01	0
0.15	0.01	0
0.16	0	0
0.17	0	0
0.17	0.01	0
0.16	0.01	0
0.17	0	0
0.18	0	0
0.18	0.01	0
0.17	0.01	0
0.18	0	0
0.19	0	0
0.19	0.01	0
0.18	0.01	0
0.19	0	0
0.2	0	0
0.2	0.01	0
0.19	0.01	0
0.2	0	0
0.21	0	0
0.21	0.01	0
0.2	0.01	0
0.21	0	0
0.22	0	0
0.22	0.01	0
0.21	0.01	0
0.22	0	0
0.23	0	0
0.23	0.01	0
0.22	0.01	0
0.23	0	0
0.24	0	0
0.24	0.01	0
0.23	0.01	0
0.24	0	0
0.25	0	0
0.25	0.01	0
0.24	0.01	0
0.25	0	0
0.26	0	0
0.26	0.01	0
0.25	0.01	0
0.26	0	0
0.27	0	0
0.27	0.01	0
0.26	0.01	0
0.27	0	0
0.28	0	0
0.28	0.01	0
0.27	0.01	0
0.28	0	0
0.29	0	0
0.29	0.01	0
0.28	0.01	0
0.29	0	0
0.3	0	0
0.3	0.01	0
0.29	0.01	0
0.3	0	0
0.31	0	0
0.31	0.01	0
0.3	0.01	0
0.31	0	0
0.32	0	0
0.32	0.01	0
0.31	0.01	0
0.32	0	0
0.33	0	0
0.33	0.01	0
0.32	0.01	0
0.33	0	0
0.34	0	0
0.34	0.01	0
0.33	0.01	0
0.34	0	0
0.35	0	0
0.35	0.01	0
0.34	0.01	0
0.35	0	0
0.36	0	0
0.36	0.01	0
0.35	0.01	0
0.36	0	0
0.37	0	0
0.37	0.01	0
0.36	0.01	0
0.37	0	0
0.38	0	0
0.38	0.01	0
0.37	0.01	0
0.38	0	0
0.39	0	0
0.39	0.01	0
0.38	0.01	0
0.39	0	0
0.4	0	0
0.4	0.01	0
0.39	0.01	0
0.4	0	0
0.41	0	0
0.41	0.01	0
0.4	0.01	0
0.41	0	0
0.42	0	0
0.42	0.01	0
0.41	0.01	0
0.42	0	0
0.43	0	0
0.43	0.01	0
0.42	0.01	0
0.43	0	0
0.44	0	0
0.44	0.01	0
0.43	0.01	0
0.44	0	0
0.45	0	0
0.45	0.01	0
0.44	0.01	0
0.45	0	0
0.46	0	0
0.46	0.01	0
0.45	0.01	0
0.46	0	0
0.47	0	0
0.47	0.01	0
0.46	0.01	0
0.47	0	0
0.48	0	0
0.48	0.01	0
0.47	0.01	0
0.48	0	0
0.49	0	0
0.49	0.01	0
0.48	0.01	0
0.49	0	0
0.5	0	0
0.5	0.01	0
0.49	0.01	0
0.5	0	0
0.51	0	0
0.51	0.01	0
0.5	0.01	0
0.51	0	0
0.52	0	0
0.52	0.01	0
0.51	0.01	0
0.52	0	0
0.53	0	0
0.53	0.01	0
0.52	0.01	0
0.53	0	0
0.54	0	0
0.54	0.01	0
0.53	0.01	0
0.54	0	0
0.55	0	0
0.55	0.01	0
0.54	0.01	0
0.55	0	0
0.56	0	0
0.56	0.01	0
0.55	0.01	0
0.56	0	0
0.57	0	0
0.57	0.01	0
0.56	0.01	0
0.57	0	0
0.58	0	0
0.58	0.01	0
0.57	0.01	0
0.58	0	0
0.59	0	0
0.59	0.01	0
0.58	0.01	0
0.59	0	0
0.6	0	0
0.6	0.01	0
0.59	0.01	0
0.6	0	0
0.61	0	0
0.61	0.01	0
0.6	0.01	0
0.61	0	0
0.62	0	0
0.62	0.01	0
0.61	0.01	0
0.62	0	0
0.63	0	0
0.63	0.01	0
0.62	0.01	0
0.63	0	0
0.64	0	0
0.64	0.01	0
0.63	0.01	0
0.64	0	0
0.65	0	0
0.65	0.01	0
0.64	0.01	0
0.65	0	0
0.66	0	0
0.66	0.01	0
0.65	0.01	0
0.66	0	0
0.67	0	0
0.67	0.01	0
0.66	0.01	0
0.67	0	0
0.68	0	0
0.68	0.01	0
0.67	0.01	0
0.68	0	0
0.69	0	0
0.69	0.01	0
0.68	0.01	0
0.69	0	0
0.7	0	0
0.7	0.01	0
0.69	0.01	0
0.7	0	0
0.71	0	0
0.71	0.01	0
0.7	0.01	0
0.71	0	0
0.72	0	0
0.72	0.01	0
0.71	0.01	0
0.72	0	0
0.73	0	0
0.73	0.01	0
0.72	0.01	0
0.73	0	0
0.74	0	0
0.74	0.01	0
0.73	0.01	0
0.74	0	0
0.75	0	0
0.75	0.01	0
0.74	0.01	0
0.75	0	0
0.76	0	0
0.76	0.01	0
0.75	0.01	0
0.76	0	0
0.77	0	0
0.77	0.01	0
0.76	0.01	0
0.77	0	0
0.78	0	0
0.78	0.01	0
0.77	0.01	0
0.78	0	0
0.79	0	0
0.79	0.01	0
0.78	0.01	0
0.79	0	0
0.8	0	0
0.8	0.01	0
0.79	0.01	0
0.8	0	0
0.81	0	0
0.81	0.01	0
0.8	0.01	0
0.81	0	0
0.82	0	0
0.82	0.01	0
0.81	0.01	0
0.82	0	0
0.83	0	0
0.83	0.01	0
0.82	0.01	0
0.83	0	0
0.84	0	0
0.84	0.01	0
0.83	0.01	0
0.84	0	0
0.85	0	0
0.85	0.01	0
0.84	0.01	0
0.85	0	0
0.86	0	0
0.86	0.01	0
0.85	0.01	0
0.86	0	0
0.87	0	0
0.87	0.01	0
0.86	0.01	0
0.87	0	0
0.88	0	0
0.88	0.01	0
0.87	0.01	0
0.88	0	0
0.89	0	0
0.89	0.01	0
0.88	0.01	0
0.89	0	0
0.9	0	0
0.9	0.01	0
0.89	0.01	0
0.9	0	0
0.91	0	0
0.91	0.01	0
0.9	0.01	0
0.91	0	0
0.92	0	0
0.92	0.01	0
0.91	0.01	0
0.92	0	0
0.93	0	0
0.93	0.01	0
0.92	0.01	0
0.93	0	0
0.94	0	0
0.94	0.01	0
0.93	0.01	0
0.94	0	0
0.95	0	0
0.95	0.01	0
0.94	0.01	0
0.95	0	0
0.96	0	0
0.96	0.01	0
0.95	0.01	0
0.96	0	0
0.97	0	0
0.97	0.01	0
0.96	0.01	0
0.97	0	0
0.98	0	0
0.98	0.01	0
0.97	0.01	0
0.98	0	0
0.99	0	0
0.99	0.01	0
0.98	0.01	0
0.99	0	0
1	0	0
1	0.01	0
0.99	0.01	0
0	0.01	0
0.01	0.01	0
0.01	0.02	0
0	0.02	0
0.01	0.01	0
0.02	0.01	0
0.02	0.02	0
0.01	0.02	0
0.02	0.01	0
0.03	0.01	0
0.03	0.02	0
0.02	0.02	0
0.03	0.01	0
0.04	0.01	0
0.04	0.02	0
0.03	0.02	0
0.04	0.01	0
0.05	0.01	0
0.05	0.02	0
0.04	0.02	0
0.05	0.01	0
0.06	0.01	0
0.06	0.02	0
0.05	0.02	0
0.06	0.01	0
0.07	0.01	0
0.07	0.02	0
0.06	0.02	0
0.07	0.01	0
0.08	0.01	0
0.08	0.02	0
0.07	0.02	0
0.08	0.01	0
0.09	0.01	0
0.09	0.02	0
0.08	0.02	0
0.09	0.01	0
0.1	0.01	0
0.1	0.02	0
0.09	0.02	0
0.1	0.01	0
0.11	0.01	0
0.11	0.02	0
0.1	0.02	0
0.11	0.01	0
0.12	0.01	0
0.12	0.02	0
0.11	0.02	0
0.12	0.01	0
0.13	0.01	0
0.13	0.02	0
0.12	0.02	0
0.13	0.01	0
0.14	0.01	0
0.14	0.02	0
0.13	0.02	0
0.14	0.01	0
0.15	0.01	0
0.15	0.02	0
0.14	0.02	0
0.15	0.01	0
0.16	0.01	0
0.16	0.02	0
0.15	0.02	0
0.16	0.01	0
0.17	0.01	0
0.17	0.02	0
0.16	0.02	0
0.17	0.01	0
0.18	0.01	0
0.18	0.02	0
0.17	0.02	0
0.18	0.01	0
0.19	0.01	0
0.19	0.02	0
0.18	0.02	0
0.19	0.01	0
0.2	0.01	0
0.2	0.02	0
0.19	0.02	0
0.2	0.01	0
0.21	0.01	0
0.21	0.02	0
0.2	0.02	0
0.21	0.01	0
0.22	0.01	0
0.22	0.02	0
0.21	0.02	0
0.22	0.01	0
0.23	0.01	0
0.23	0.02	0
0.22	0.02	0
0.23	0.01	0
0.24	0.01	0
0.24	0.02	0
0.23	0.02	0
0.24	0.01	0
0.25	0.01	0
0.25	0.02	0
0.24	0.02	0
0.25	0.01	0
0.26	0.01	0
0.26	0.02	0
0.25	0.02	0
0.26	0.01	0
0.27	0.01	0
0.27	0.02	0
0.26	0.02	0
0.27	0.01	0
0.28	0.01	0
0.28	0.02	0
0.27	0.02	0
0.28	0.01	0
0.29	0.01	0
0.29	0.02	0
0.28	0.02	0
0.29	0.01	0
0.3	0.01	0
0.3	0.02	0
0.29	0.02	0
0.3	0.01	0
0.31	0.01	0
0.31	0.02	0
0.3	0.02	0
0.31	0.01	0
0.32	0.01	0
0.32	0.02	0
0.31	0.02	0
0.32	0.01	0
0.33	0.01	0
0.33	0.02	0
0.32	0.02	0
0.33	0.01	0
0.34	0.01	0
0.34	0.02	0
0.33	0.02	0
0.34	0.01	0
0.35	0.01	0
0.35	0.02	0
0.34	0.02	0
0.35	0.01	0
0.36	0.01	0
0.36	0.02	0
0.35	0.02	0
0.36	0.01	0
0.37	0.01	0
0.37	0.02	0
0.36	0.02	0
0.37	0.01	0
0.38	0.01	0
0.38	0.02	0
0.37	0.02	0
0.38	0.01	0
0.39	0.01	0
0.39	0.02	0
0.38	0.02	0
0.39	0.01	0
0.4	0.01	0
0.4	0.02	0
0.39	0.02	0
0.4	0.01	0
0.41	0.01	0
0.41	0.02	0
0.4	0.02	0
0.41	0.01	0
0.42	0.01	0
0.42	0.02	0
0.41	0.02	0
0.42	0.01	0
0.43	0.01	0
0.43	0.02	0
0.42	0.02	0
0.43	0.01	0
0.44	0.01	0
0.44	0.02	0
0.43	0.02	0
0.44	0.01	0
0.45	0.01	0
0.45	0.02	0
0.44	0.02	0
0.45	0.01	0
0.46	0.01	0
0.46	0.02	0
0.45	0.02	0
0.46	0.01	0
0.47	0.01	0
0.47	0.02	0
0.46	0.02	0
0.47	0.01	0
0.48	0.01	0
0.48	0.02	0
0.47	0.02	0
0.48	0.01	0
0.49	0.01	0
0.49	0.02	0
0.48	0.02	0
0.49	0.01	0
0.5	0.01	0
0.5	0.02	0
0.49	0.02	0
0.5	0.01	0
0.51	0.01	0
0.51	0.02	0
0.5	0.02	0
0.51	0.01	0
0.52	0.01	0
0.52	0.02	0
0.51	0.02	0
0.52	0.01	0
0.53	0.01	0
0.53	0.02	0
0.52	0.02	0
0.53	0.01	0
0.54	0.01	0
0.54	0.02	0
0.53	0.02	0
0.54	0.01	0
0.55	0.01	0
0.55	0.02	0
0.54	0.02	0
0.55	0.01	0
0.56	0.01	0
0.56	0.02	0
0.55	0.02	0
0.56	0.01	0
0.57	0.01	0
0.57	0.02	0
0.56	0.02	0
0.57	0.01	0
0.58	0.01	0
0.58	0.02	0
0.57	0.02	0
0.58	0.01	0
0.59	0.01	0
0.59	0.02	0
0.58	0.02	0
0.59	0.01	0
0.6	0.01	0
0.6	0.02	0
0.59	0.02	0
0.6	0.01	0
0.61	0.01	0
0.61	0.02	0
0.6	0.02	0
0.61	0.01	0
0.62	0.01	0
0.62	0.02	0
0.61	0.02	0
0.62	0.01	0
0.63	0.01	0
0.63	0.02	0
0.62	0.02	0
0.63	0.01	0
0.64	0.01	0
0.64	0.02	0
0.63	0.02	0
0.64	0.01	0
0.65	0.01	0
0.65	0.02	0
0.64	0.02	0
0.65	0.01	0
0.66	0.01	0
0.66	0.02	0
0.65	0.02	0
0.66	0.01	0
0.67	0.01	0
0.67	0.02	0
0.66	0.02	0
0.67	0.01	0
0.68	0.01	0
0.68	0.02	0
0.67	0.02	0
0.68	0.01	0
0.69	0.01	0
0.69	0.02	0
0.68	0.02	0
0.69	0.01	0
0.7	0.01	0
0.7	0.02	0
0.69	0.02	0
0.7	0.01	0
0.71	0.01	0
0.71	0.02	0
0.7	0.02	0
0.71	0.01	0
0.72	0.01	0
0.72	0.02	0
0.71	0.02	0
0.72	0.01	0
0.73	0.01	0
0.73	0.02	0
0.72	0.02	0
0.73	0.01	0
0.74	0.01	0
0.74	0.02	0
0.73	0.02	0
0.74	0.01	0
0.75	0.01	0
0.75	0.02	0
0.74	0.02	0
0.75	0.01	0
0.76	0.01	0
0.76	0.02	0
0.75	0.02	0
0.76	0.01	0
0.77	0.01	0
0.77	0.02	0
0.76	0.02	0
0.77	0.01	0
0.78	0.01	0
0.78	0.02	0
0.77	0.02	0
0.78	0.01	0
0.79	0.01	0
0.79	0.02	0
0.78	0.02	0
0.79	0.01	0
0.8	0.01	0
0.8	0.02	0
0.79	0.02	0
0.8	0.01	0
0.81	0.01	0
0.81	0.02	0
0.8	0.02	0
0.81	0.01	0
0.82	0.01	0
0.82	0.02	0
0.81	0.02	0
0.82	0.01	0
0.83	0.01	0
0.83	0.02	0
0.82	0.02	0
0.83	0.01	0
0.84	0.01	0
0.84	0.02	0
0.83	0.02	0
0.84	0.01	0
0.85	0.01	0
0.85	0.02	0
0.84	0.02	0
0.85	0.01	0
0.86	0.01	0
0.86	0.02	0
0.85	0.02	0
0.86	0.01	0
0.87	0.01	0
0.87	0.02	0
0.86	0.02	0
0.87	0.01	0
0.88	0.01	0
0.88	0.02	0
0.87	0.02	0
0.88	0.01	0
0.89	0.01	0
0.89	0.02	0
0.88	0.02	0
0.89	0.01	0
0.9	0.01	0
0.9	0.02	0
0.89	0.02	0
0.9	0.01	0
0.91	0.01	0
0.91	0.02	0
0.9	0.02	0
0.91	0.01	0
0.92	0.01	0
0.92	0.02	0
0.91	0.02	0
0.92	0.01	0
0.93	0.01	0
0.93	0.02	0
0.92	0.02	0
0.93	0.01	0
0.94	0.01	0
0.94	0.02	0
0.93	0.02	0
0.94	0.01	0
0.95	0.01	0
0.95	0.02	0
0.94	0.02	0
0.95	0.01	0
0.96	0.01	0
0.96	0.02	0
0.95	0.02	0
0.96	0.01	0
0.97	0.01	0
0.97	0.02	0
0.96	0.02	0
0.97	0.01	0
0.98	0.01	0
0.98	0.02	0
0.97	0.02	0
0.98	0.01	0
0.99	0.01	0
0.99	0.02	0
0.98	0.02	0
0.99	0.01	0
1	0.01	0
1	0.02	0
0.99	0.02	0
0	0.02	0
0.01	0.02	0
0.01	0.03	0
0	0.03	0
0.01	0.02	0
0.02	0.02	0
0.02	0.03	0
0.01	0.03	0
0.02	0.02	0
0.03	0.02	0
0.03	0.03	0
0.02	0.03	0
0.03	0.02	0
0.04	0.02	0
0.04	0.03	0
0.03	0.03	0
0.04	0.02	0
0.05	0.02	0
0.05	0.03	0
0.04	0.03	0
0.05	0.02	0
0.06	0.02	0
0.06	0.03	0
0.05	0.03	0
0.06	0.02	0
0.07	0.02	0
0.07	0.03	0
0.06	0.03	0
0.07	0.02	0
0.08	0.02	0
0.08	0.03	0
0.07	0.03	0
0.08	0.02	0
0.09	0.02	0
0.09	0.03	0
0.08	0.03	0
0.09	0.02	0
0.1	0.02	0
0.1	0.03	0
0.09	0.03	0
0.1	0.02	0
0.11	0.02	0
0.11	0.03	0
0.1	0.03	0
0.11	0.02	0
0.12	0.02	0
0.12	0.03	0
0.11	0.03	0
0.12	0.02	0
0.13	0.02	0
0.13	0.03	0
0.12	0.03	0
0.13	0.02	0
0.14	0.02	0
0.14	0.03	0
0.13	0.03	0
0.14	0.02	0
0.15	0.02	0
0.15	0.03	0
0.14	0.03	0
0.15	0.02	0
0.16	0.02	0
0.16	0.03	0
0.15	0.03	0
0.16	0.02	0
0.17	0.02	0
0.17	0.03	0
0.16	0.03	0
0.17	0.02	0
0.18	0.02	0
0.18	0.03	0
0.17	0.03	0
0.18	0.02	0
0.19	0.02	0
0.19	0.03	0
0.18	0.03	0
0.19	0.02	0
0.2	0.02	0
0.2	0.03	0
[...]
POINT_DATA 40000
SCALARS dg1 DOUBLE 
LOOKUP_TABLE default
-1.04038e-83
-6.55697e-84
1.13795e-83
7.53272e-84
-1.28547e-82
-8.0047e-83
1.79993e-82
1.31493e-82
-1.84054e-81
-1.10068e-81
2.63439e-81
1.89453e-81
-2.53609e-80
-1.45311e-80
3.71103e-80
2.62805e-80
-3.3627e-79
-1.84149e-79
5.03097e-79
3.50976e-79
-4.29027e-78
-2.23959e-78
6.56308e-78
4.5124e-78
-5.26652e-77
-2.61325e-77
8.23796e-77
5.58469e-77
-6.21977e-76
-2.92472e-76
9.94825e-76
6.6532e-76
-7.06654e-75
-3.1386e-75
1.15571e-74
7.6292e-75
-7.72311e-74
-3.22833e-74
1.2915e-73
8.42019e-74
-8.119e-73
-3.18147e-73
1.38817e-72
8.94415e-73
-8.20936e-72
-3.00243e-72
1.43504e-71
9.14342e-72
-7.98334e-71
-2.71183e-71
1.42667e-70
8.99521e-71
-7.46626e-70
-2.34261e-70
1.36395e-69
8.51583e-70
-6.71485e-69
-1.93384e-69
1.25388e-68
7.75777e-69
-5.80711e-68
-1.52396e-68
1.10833e-67
6.8002e-68
-4.8289e-67
-1.14496e-67
9.41935e-67
5.73541e-67
-3.86078e-66
-8.18707e-67
7.69629e-66
4.65422e-66
-2.96768e-65
-5.55904e-66
6.0455e-65
3.63372e-65
-2.19306e-64
-3.57304e-65
4.56512e-64
2.72937e-64
-1.55794e-63
-2.16406e-64
3.31378e-63
1.97225e-63
-1.06388e-62
-1.22654e-63
2.31222e-62
1.37099e-62
-6.98327e-62
-6.43194e-63
1.55079e-61
9.16782e-62
-4.40576e-61
-3.05663e-62
9.99721e-61
5.89711e-61
-2.67153e-60
-1.25915e-61
6.19432e-60
3.64871e-60
-1.55687e-59
-3.95288e-61
3.68879e-59
2.17146e-59
-8.71916e-59
-3.638e-61
2.11125e-58
1.24297e-58
-4.69254e-58
7.74318e-60
1.16131e-57
6.84312e-58
-2.42677e-57
8.88493e-59
6.13902e-57
3.6234e-57
-1.20591e-56
6.77045e-58
3.11877e-56
1.84516e-56
-5.75766e-56
4.32286e-57
1.52263e-55
9.03633e-56
-2.64119e-55
2.46701e-56
7.14367e-55
4.25578e-55
-1.164e-54
1.29326e-55
3.22077e-54
1.92744e-54
-4.92814e-54
6.31615e-55
1.39541e-53
8.39431e-54
-2.00432e-53
2.89767e-54
5.80951e-53
3.51542e-53
-7.83037e-53
1.25528e-53
2.32419e-52
1.41562e-52
-2.93836e-52
5.15285e-53
8.9349e-52
5.48126e-52
-1.05903e-51
2.00922e-52
3.30059e-51
2.04064e-51
-3.66577e-51
7.45503e-52
1.17158e-50
7.30453e-51
-1.21857e-50
2.63557e-51
3.99603e-50
2.51389e-50
-3.88989e-50
8.88637e-51
1.30965e-49
8.318e-50
-1.19232e-49
2.85968e-50
4.12433e-49
2.64605e-49
-3.50899e-49
8.78797e-50
1.24801e-48
8.0923e-49
-9.9146e-49
2.57997e-49
3.62866e-48
2.3792e-48
-2.68926e-48
7.23797e-49
1.01376e-47
6.72458e-48
-7.00188e-48
1.94077e-48
2.72137e-47
1.82711e-47
-1.74976e-47
4.97433e-48
7.01939e-47
4.7722e-47
-4.19617e-47
1.21831e-47
1.73963e-46
1.19819e-46
-9.65939e-47
2.86215e-47
4.14343e-46
2.89128e-46
-2.12322e-46
6.2976e-47
9.46296e-46
6.70998e-46
-4.47907e-46
1.24685e-46
2.05368e-45
1.48109e-45
-9.2114e-46
2.55652e-46
4.24987e-45
3.07307e-45
-1.82375e-45
4.96303e-46
8.45964e-45
6.13958e-45
-3.47538e-45
9.10482e-46
1.61967e-44
1.18108e-44
-6.37258e-45
1.57352e-45
2.98234e-44
2.18773e-44
-1.12403e-44
2.54916e-45
5.28089e-44
3.90194e-44
-1.9066e-44
3.83984e-45
8.99152e-44
6.70094e-44
-3.10894e-44
5.30181e-45
1.47195e-43
1.10804e-43
-4.87177e-44
6.52463e-45
2.31656e-43
1.76414e-43
-7.33367e-44
6.69027e-45
3.5046e-43
2.70433e-43
-1.0601e-43
4.45011e-45
5.09605e-43
3.99145e-43
-1.47088e-43
-2.11994e-45
7.12166e-43
5.67197e-43
-1.95804e-43
-1.54145e-44
9.56384e-43
7.75994e-43
-2.49955e-43
-3.79864e-44
1.23407e-42
1.0221e-42
-3.05815e-43
-7.20179e-44
1.52984e-42
1.29605e-42
-3.58379e-43
-1.18641e-43
1.82182e-42
1.58208e-42
-4.01977e-43
-1.77262e-43
2.0838e-42
1.85909e-42
-4.3119e-43
-2.45094e-43
2.28899e-42
2.10289e-42
-4.41878e-43
-3.17115e-43
2.41437e-42
2.28961e-42
-4.32072e-43
-3.86565e-43
2.44496e-42
2.39945e-42
-4.02471e-43
-4.45949e-43
2.37672e-42
2.4202e-42
-3.56392e-43
-4.8837e-43
2.2174e-42
2.34938e-42
-2.99155e-43
-5.08842e-43
1.98513e-42
2.19482e-42
-2.37077e-43
-5.05255e-43
1.70499e-42
1.97317e-42
-1.76314e-43
-4.78724e-43
1.40455e-42
1.70696e-42
-1.21873e-43
-4.33253e-43
1.1095e-42
1.42087e-42
-7.69868e-44
-3.74821e-43
8.40146e-43
1.13798e-42
-4.29539e-44
-3.10181e-43
6.09644e-43
8.76871e-43
-1.93928e-44
-2.45667e-43
4.23758e-43
6.50031e-43
-4.75573e-45
-1.86298e-43
2.82017e-43
4.63559e-43
3.0768e-45
-1.3532e-43
1.796e-43
3.17997e-43
6.27553e-45
-9.41777e-44
1.09376e-43
2.09829e-43
6.70856e-45
-6.28175e-44
6.36436e-44
1.3317e-43
5.77296e-45
-4.01663e-44
3.53475e-44
8.12867e-44
4.37961e-45
-2.46252e-44
1.87135e-44
4.77183e-44
3.03338e-45
-1.44781e-44
9.42733e-45
2.69388e-44
1.95137e-45
-8.16439e-45
4.5086e-45
1.46244e-44
1.17734e-45
-4.41648e-45
2.04029e-45
7.63411e-45
6.70257e-46
-2.29204e-45
8.69497e-46
3.8318e-45
3.61497e-46
-1.14132e-45
3.46395e-46
1.84922e-45
1.85229e-46
-5.45353e-46
1.27432e-46
8.58015e-46
9.03524e-47
-2.50073e-46
4.23149e-47
3.8274e-46
4.20201e-47
-1.10055e-46
1.20585e-47
1.64134e-46
1.8654e-47
-4.64876e-47
2.52237e-48
6.7664e-47
7.91191e-48
-1.88485e-47
5.38879e-50
2.68143e-47
3.20853e-48
-7.33594e-48
-3.30138e-49
1.02143e-47
1.24481e-48
-2.74091e-48
-2.45726e-49
3.73999e-48
4.6233e-49
-9.83241e-49
-1.2928e-49
1.31629e-48
1.63182e-49
-3.36922e-49
-5.57042e-50
4.444e-49
6.90426e-50
-1.242e-49
-4.10521e-50
1.5219e-49
-1.54628e-82
-9.32889e-83
1.71829e-82
1.1049e-82
-1.89553e-81
-1.1148e-81
2.73397e-81
1.95324e-81
-2.71694e-80
-1.52826e-80
4.0068e-80
2.81812e-80
-3.74761e-79
-2.01074e-79
5.65147e-79
3.91461e-79
-4.97416e-78
-2.53837e-78
7.67079e-78
5.235e-78
-6.35253e-77
-3.07372e-77
1.00182e-76
6.7394e-77
-7.80556e-76
-3.56896e-76
1.25884e-75
8.35176e-76
-9.22705e-75
-3.97212e-75
1.52174e-74
9.96242e-75
-1.04929e-73
-4.23562e-74
1.76955e-73
1.14382e-73
-1.1478e-72
-4.32521e-73
1.97926e-72
1.26398e-72
-1.20769e-71
-4.22703e-72
2.12925e-71
1.34426e-71
-1.22217e-70
-3.95085e-71
2.20293e-70
1.37585e-70
-1.18951e-69
-3.52853e-70
2.19179e-69
1.35514e-69
-1.11336e-68
-3.00799e-69
2.09696e-68
1.2844e-68
-1.00211e-67
-2.44423e-68
1.92908e-67
1.17139e-67
-8.67307e-67
-1.88978e-67
1.70628e-66
1.02795e-66
-7.21753e-66
-1.38688e-66
1.45101e-65
8.67942e-66
-5.7748e-65
-9.62873e-66
1.18628e-64
7.05084e-65
-4.44215e-64
-6.29339e-65
9.32351e-64
5.51069e-64
-3.285e-63
-3.84342e-64
7.04417e-63
4.14352e-63
-2.33527e-62
-2.16581e-63
5.11588e-62
2.99719e-62
-1.5958e-61
-1.10007e-62
3.57136e-61
2.08557e-61
-1.04818e-60
-4.78007e-62
2.39638e-60
1.396e-60
-6.61734e-60
-1.50701e-61
1.5455e-59
8.98838e-60
-4.01518e-59
-1.88564e-62
9.57998e-59
5.56669e-59
-2.3414e-58
4.98387e-60
5.70726e-58
3.31602e-58
-1.31213e-57
5.57281e-59
3.26774e-57
1.89989e-57
-7.06615e-57
4.45646e-58
1.7981e-56
1.04692e-56
-3.65658e-56
3.037e-57
9.50861e-56
5.54833e-56
-1.81816e-55
1.86212e-56
4.83224e-55
2.82786e-55
-8.68626e-55
1.05223e-55
2.35993e-54
1.38608e-54
-3.98708e-54
5.54998e-55
1.10755e-53
6.53342e-54
-1.75824e-53
2.75316e-54
4.99497e-53
2.96142e-53
-7.44868e-53
1.29074e-53
2.16472e-52
1.29078e-52
-3.03136e-52
5.73764e-53
9.01502e-52
5.4099e-52
-1.18503e-51
2.42396e-52
3.60761e-51
2.18019e-51
-4.4497e-51
9.74855e-52
1.38726e-50
8.44804e-51
-1.60479e-50
3.73699e-51
5.12597e-50
3.14748e-50
-5.55863e-50
1.36671e-50
1.82e-49
1.12746e-49
-1.84907e-49
4.77222e-50
6.20927e-49
3.88298e-49
-5.9067e-49
1.59178e-49
2.03554e-48
1.28569e-48
-1.81183e-48
5.07398e-49
6.41192e-48
4.09269e-48
-5.33626e-48
1.54612e-48
1.94071e-47
1.25248e-47
-1.50894e-47
4.50461e-48
5.64416e-47
3.68475e-47
-4.09627e-47
1.25501e-47
1.57724e-46
1.04211e-46
-1.06745e-46
3.34378e-47
4.23505e-46
2.83322e-46
-2.66998e-46
8.51958e-47
1.09264e-45
7.40449e-46
-6.40943e-46
2.07554e-46
2.70866e-45
1.86016e-45
-1.47648e-45
4.83816e-46
6.452e-45
4.4917e-45
-3.25687e-45
1.0792e-45
1.4758e-44
1.0422e-44
-6.78479e-45
2.34245e-45
3.22376e-44
2.31103e-44
-1.34359e-44
5.4106e-45
6.73294e-44
4.84828e-44
-2.55161e-44
1.17887e-44
1.35244e-43
9.7939e-44
-4.6443e-44
2.4314e-44
2.61252e-43
1.90495e-43
-8.09607e-44
4.75835e-44
4.8528e-43
3.56736e-43
-1.3505e-43
8.85049e-44
8.6671e-43
6.43155e-43
-2.1533e-43
1.56627e-43
1.48821e-42
1.11625e-42
-3.27713e-43
2.63914e-43
2.45654e-42
1.86491e-42
-4.75188e-43
4.23567e-43
3.89773e-42
2.99898e-42
-6.54859e-43
6.47579e-43
5.94417e-42
4.64173e-42
-8.54766e-43
9.42992e-43
8.7121e-42
6.91434e-42
-1.05144e-42
1.30732e-42
1.22706e-41
9.91188e-42
-1.20945e-42
1.7242e-42
1.66068e-41
1.36732e-41
-1.28413e-42
2.16087e-42
2.15945e-41
1.81495e-41
-1.22808e-42
2.56906e-42
2.69771e-41
2.318e-41
-1.00094e-42
2.89046e-42
3.23748e-41
2.84834e-41
-5.80587e-43
3.0665e-42
3.73197e-41
3.36726e-41
2.72004e-44
3.0508e-42
4.13188e-41
3.82952e-41
7.83794e-43
2.82122e-42
4.39333e-41
4.18959e-41
1.61998e-42
2.38769e-42
4.48573e-41
4.40896e-41
2.44591e-42
1.79331e-42
4.39765e-41
4.46291e-41
3.16691e-42
1.10742e-42
4.13914e-41
4.34509e-41
3.70134e-42
4.12297e-43
3.73981e-41
4.06871e-41
3.99582e-42
-2.13017e-43
3.24329e-41
3.66417e-41
4.03395e-42
-7.07419e-43
2.69936e-41
3.1735e-41
3.83645e-42
-1.03718e-42
2.15582e-41
2.64318e-41
3.45355e-42
-1.19824e-42
1.65184e-41
2.11702e-41
2.9522e-42
-1.21172e-42
1.2141e-41
1.63049e-41
2.40197e-42
-1.11495e-42
8.55823e-42
1.20752e-41
1.86325e-42
-9.51024e-43
5.78443e-42
8.5987e-42
1.37977e-42
-7.59879e-43
3.74777e-42
5.88743e-42
9.76359e-43
-5.72406e-43
2.327e-42
3.87577e-42
6.60719e-43
-4.0824e-43
1.38415e-42
2.45311e-42
4.27859e-43
-2.76479e-43
7.88425e-43
1.49276e-42
2.65267e-43
-1.78186e-43
4.29857e-43
8.7331e-43
1.57523e-43
-1.09458e-43
2.24196e-43
4.91177e-43
8.96263e-44
-6.41671e-44
1.11782e-43
2.65576e-43
4.88748e-44
-3.59329e-44
5.32336e-44
1.38041e-43
2.55506e-44
-1.92363e-44
2.4188e-44
6.89748e-44
1.28078e-44
-9.85076e-45
1.04715e-44
3.31301e-44
6.15721e-45
-4.82796e-45
4.31142e-45
1.52966e-44
2.83923e-45
-2.26564e-45
1.68403e-45
6.7889e-45
1.25598e-45
-1.01837e-45
6.21838e-46
2.89619e-45
5.33067e-46
-4.38576e-46
2.1595e-46
1.18759e-45
2.17093e-46
-1.81018e-46
6.99625e-47
4.68074e-46
8.4843e-47
-7.16205e-47
2.0857e-47
1.77321e-46
3.1822e-47
-2.71691e-47
5.57322e-48
6.45644e-47
1.14563e-47
-9.88491e-48
1.25419e-48
2.25954e-47
3.94305e-48
-3.42503e-48
2.2211e-49
7.59018e-48
1.49052e-48
-1.36901e-48
-3.02821e-49
2.55671e-48
-2.25159e-81
-1.33155e-81
2.51972e-81
1.59968e-81
-2.75659e-80
-1.57755e-80
4.02424e-80
2.8452e-80
-3.95478e-79
-2.16034e-79
5.90368e-79
4.10923e-79
-5.45986e-78
-2.83873e-78
8.33485e-78
5.71372e-78
-7.25301e-77
-3.57817e-77
1.13231e-76
7.64826e-77
-9.27047e-76
-4.32501e-76
1.48007e-75
9.85528e-76
-1.13999e-74
-5.0112e-75
1.86128e-74
1.2224e-74
-1.34862e-73
-5.56334e-74
2.25169e-73
1.45941e-73
-1.53474e-72
-5.91497e-73
2.62024e-72
1.677e-72
-1.68001e-71
-6.01914e-72
2.93275e-71
1.85465e-71
-1.76884e-70
-5.85834e-71
3.157e-70
1.97399e-70
-1.79118e-69
-5.44876e-70
3.26821e-69
2.0219e-69
-1.74437e-68
-4.83769e-69
3.25352e-68
1.99291e-68
-1.63366e-67
-4.09455e-68
3.11441e-67
1.89021e-67
-1.47122e-66
-3.29785e-67
2.8665e-66
1.72507e-66
-1.27398e-65
-2.52162e-66
2.53664e-65
1.51482e-65
-1.0607e-64
-1.82441e-65
2.1581e-64
1.27984e-64
-8.49075e-64
-1.243e-64
1.76511e-63
1.04033e-63
-6.53423e-63
-7.91631e-64
1.38783e-62
8.13569e-63
-4.83411e-62
-4.65532e-63
1.04894e-61
6.12077e-62
-3.43786e-61
-2.47098e-62
7.62064e-61
4.42988e-61
-2.35011e-60
-1.12573e-61
5.32168e-60
3.08415e-60
-1.54416e-59
-3.76851e-61
3.57196e-59
2.06548e-59
-9.75166e-59
-1.37617e-61
2.30435e-58
1.33056e-58
-5.91869e-58
1.24631e-59
1.42878e-57
8.24445e-58
-3.45233e-57
1.48379e-58
8.51416e-57
4.91345e-57
-1.93516e-56
1.24499e-57
4.87606e-56
2.8164e-56
-1.04236e-55
8.87121e-57
2.68372e-55
1.55265e-55
-5.39501e-55
5.67974e-56
1.4195e-54
8.23202e-55
-2.68301e-54
3.34922e-55
7.21535e-54
4.19742e-54
-1.28199e-53
1.84288e-54
3.52447e-53
2.0582e-53
-5.88513e-53
9.53544e-54
1.65439e-52
9.70526e-53
-2.59548e-52
4.66252e-53
7.46251e-52
4.40078e-52
-1.09963e-51
2.16165e-52
3.23465e-51
1.91885e-51
-4.47529e-51
9.52483e-52
1.34729e-50
8.04508e-51
-1.74951e-50
3.99558e-51
5.39234e-50
3.24328e-50
-6.56916e-50
1.59774e-50
2.07385e-49
1.25716e-49
-2.36907e-49
6.09616e-50
7.66397e-49
4.68529e-49
-8.20527e-49
2.22101e-49
2.72148e-48
1.67885e-48
-2.72916e-48
7.73105e-49
9.28594e-48
5.78367e-48
-8.71684e-48
2.57221e-48
3.04449e-47
1.91559e-47
-2.67333e-47
8.18277e-48
9.59114e-47
6.09953e-47
-7.87188e-47
2.48956e-47
2.90328e-46
1.86713e-46
-2.22537e-46
7.24516e-47
8.4444e-46
5.49451e-46
-6.03932e-46
2.01706e-46
2.35998e-45
1.55434e-45
-1.57324e-45
5.37215e-46
6.33734e-45
4.22688e-45
-3.93354e-45
1.36877e-45
1.63517e-44
1.10494e-44
-9.43841e-45
3.33587e-45
4.0539e-44
2.77648e-44
-2.17314e-44
7.78107e-45
9.6571e-44
6.70585e-44
-4.79139e-44
1.73693e-44
2.20917e-43
1.55634e-43
-9.98533e-44
3.76754e-44
4.82845e-43
3.45316e-43
-1.97829e-43
8.60132e-44
1.00922e-42
7.25373e-43
-3.75791e-43
1.85746e-43
2.02859e-42
1.46706e-42
-6.84018e-43
3.80445e-43
3.92105e-42
2.85659e-42
-1.19216e-42
7.40437e-43
7.28734e-42
5.35474e-42
-1.98769e-42
1.37108e-42
1.30214e-41
9.66259e-42
-3.16681e-42
2.41765e-42
2.23681e-41
1.67836e-41
-4.81413e-42
4.06177e-42
3.69358e-41
2.80599e-41
-6.96957e-42
6.50352e-42
5.86242e-41
4.51511e-41
-9.58435e-42
9.92451e-42
8.94295e-41
6.99207e-41
-1.24741e-41
1.44315e-41
1.31106e-40
1.04201e-40
-1.52837e-41
1.99877e-41
1.84701e-40
1.4943e-40
-1.7482e-41
2.63474e-41
2.50025e-40
2.06196e-40
-1.84042e-41
3.30185e-41
3.25184e-40
2.73762e-40
-1.73511e-41
3.92761e-41
4.06323e-40
3.49696e-40
-1.37354e-41
4.42436e-41
4.87724e-40
4.29745e-40
-7.24777e-42
4.70401e-41
5.62341e-40
5.08053e-40
2.00063e-42
4.69657e-41
6.22748e-40
5.77783e-40
1.34092e-41
4.36811e-41
6.62327e-40
6.32055e-40
2.59264e-41
3.73258e-41
6.76457e-40
6.65058e-40
3.82023e-41
2.85339e-41
6.634e-40
6.73068e-40
4.88274e-41
1.83322e-41
6.24645e-40
6.5514e-40
5.65988e-41
7.94283e-42
5.64636e-40
6.13292e-40
6.07446e-41
-1.45657e-42
4.89928e-40
5.52129e-40
6.10489e-41
-8.9515e-42
4.0801e-40
4.7801e-40
5.78485e-41
-1.40309e-41
3.26083e-40
3.97962e-40
5.19146e-41
-1.66223e-41
2.50057e-40
3.18594e-40
4.42588e-41
-1.70265e-41
1.83966e-40
2.45252e-40
3.59233e-41
-1.57854e-41
1.29822e-40
1.8153e-40
2.7805e-41
-1.35295e-41
8.78577e-41
1.29192e-40
2.05483e-41
-1.08449e-41
5.70085e-41
8.84017e-41
1.45127e-41
-8.18718e-42
3.54581e-41
5.8158e-41
9.80321e-42
-5.84783e-42
2.11339e-41
3.67849e-41
6.33725e-42
-3.96442e-42
1.20665e-41
2.23682e-41
3.92247e-42
-2.55667e-42
6.59708e-42
1.30762e-41
2.32554e-42
-1.57114e-42
3.45205e-42
7.34873e-42
1.32111e-42
-9.2121e-43
1.72786e-42
3.97018e-42
7.19333e-43
-5.15877e-43
8.2669e-43
2.0619e-42
3.75494e-43
-2.76137e-43
3.77743e-43
1.02937e-42
1.87952e-43
-1.41377e-43
1.64661e-43
4.9399e-43
9.0228e-44
-6.92693e-44
6.8376e-44
2.27873e-43
4.15483e-44
-3.2494e-44
2.69971e-44
1.01039e-43
1.83544e-44
-1.45992e-44
1.01091e-44
4.30627e-44
7.77958e-45
-6.28427e-45
3.57688e-45
1.76407e-44
3.16406e-45
-2.59239e-45
1.18946e-45
6.94591e-45
1.23495e-45
-1.0251e-45
3.68592e-46
2.62864e-45
4.62594e-46
-3.88638e-46
1.04896e-46
9.56127e-46
1.66327e-46
-1.41307e-46
2.66262e-47
3.34261e-46
5.71853e-47
-4.89369e-47
6.0498e-48
1.12172e-46
2.1538e-47
-1.9547e-47
-3.40938e-48
3.76756e-47
-3.14894e-80
-1.82274e-80
3.55044e-80
2.22424e-80
-3.85006e-79
-2.139e-79
5.69188e-79
3.98082e-79
-5.52868e-78
-2.9255e-78
8.35848e-78
5.75529e-78
-7.63958e-77
-3.83835e-77
1.18117e-76
8.01047e-77
-1.01573e-75
-4.8295e-76
1.60608e-75
1.0733e-75
-1.29934e-74
-5.82518e-75
2.10112e-74
1.3843e-74
-1.59907e-73
-6.73257e-74
2.64439e-73
1.71857e-73
-1.89316e-72
-7.45245e-73
3.20147e-72
2.05356e-72
-2.15601e-71
-7.89603e-72
3.72813e-71
2.36172e-71
-2.36173e-70
-8.00211e-71
4.17556e-70
2.61404e-70
-2.48828e-69
-7.75022e-70
4.49768e-69
2.78442e-69
-2.52132e-68
-7.16597e-69
4.6589e-68
2.85417e-68
-2.45693e-67
-6.31687e-68
4.64055e-67
2.81531e-67
-2.30233e-66
-5.29947e-67
4.44449e-66
2.67211e-66
-2.07455e-65
-4.22131e-66
4.09275e-65
2.44033e-65
-1.79737e-64
-3.1822e-65
3.62347e-64
2.14432e-64
-1.49722e-63
-2.25953e-64
3.08411e-63
1.81285e-63
-1.19906e-62
-1.50026e-63
2.52354e-62
1.4745e-62
-9.23174e-62
-9.20333e-63
1.98493e-61
1.15379e-61
-6.83261e-61
-5.10154e-62
1.50079e-60
8.68543e-61
-4.86103e-60
-2.43368e-61
1.09072e-59
6.28955e-60
-3.3242e-59
-8.6164e-61
7.61928e-59
4.38125e-59
-2.18493e-58
-4.92728e-61
5.11571e-58
2.9357e-58
-1.38026e-57
2.88577e-59
3.30122e-57
1.89211e-57
-8.3798e-57
3.64908e-58
2.04744e-56
1.17297e-56
-4.88916e-56
3.20932e-57
1.22039e-55
6.99385e-56
-2.74121e-55
2.38966e-56
6.99091e-55
4.01074e-55
-1.47684e-54
1.59693e-55
3.84859e-54
2.21206e-54
-7.64524e-54
9.82369e-55
2.03608e-53
1.17332e-53
-3.80269e-53
5.63746e-54
1.03516e-52
5.98516e-53
-1.81724e-52
3.04176e-53
5.05741e-52
2.936e-52
-8.34318e-52
1.55087e-52
2.3744e-51
1.38499e-51
-3.67984e-51
7.49737e-52
1.07121e-50
6.28253e-51
-1.55913e-50
3.44476e-51
4.64396e-50
2.74035e-50
-6.34555e-50
1.50689e-50
1.93459e-49
1.14935e-49
-2.48064e-49
6.28409e-50
7.7441e-49
4.63505e-49
-9.31419e-49
2.50072e-49
2.97873e-48
1.79724e-48
-3.35882e-48
9.5035e-49
1.10094e-47
6.70027e-48
-1.16322e-47
3.45105e-48
3.90994e-47
2.40162e-47
-3.86851e-47
1.19803e-47
1.33427e-46
8.27615e-47
-1.23539e-46
3.97727e-47
4.37504e-46
2.74192e-46
-3.78801e-46
1.26305e-46
1.37843e-45
8.73319e-46
-1.11515e-45
3.83759e-46
4.17298e-45
2.67407e-45
-3.15164e-45
1.11573e-45
1.21386e-44
7.87121e-45
-8.55029e-45
3.10422e-45
3.39272e-44
2.22727e-44
-2.22652e-44
8.26514e-45
9.11137e-44
6.05834e-44
-5.56451e-44
2.10592e-44
2.35112e-43
1.58408e-43
-1.33454e-43
5.13422e-44
5.82934e-43
3.98138e-43
-3.07101e-43
1.1983e-43
1.38875e-42
9.61821e-43
-6.7676e-43
2.67681e-43
3.17728e-42
2.23284e-42
-1.41078e-42
5.80314e-43
6.94807e-42
4.95697e-42
-2.79601e-42
1.31145e-42
1.45331e-41
1.04257e-41
-5.31198e-42
2.80975e-42
2.92318e-41
2.111e-41
-9.66815e-42
5.71887e-42
5.65349e-41
4.11479e-41
-1.6845e-41
1.1074e-41
1.05126e-40
7.72068e-41
-2.8069e-41
2.04217e-41
1.8793e-40
1.3944e-40
-4.46788e-41
3.58891e-41
3.22958e-40
2.4239e-40
-6.78319e-41
6.01302e-41
5.33484e-40
4.05522e-40
-9.80287e-41
9.6065e-41
8.47013e-40
6.52919e-40
-1.34486e-40
1.46342e-40
1.29246e-39
1.01164e-39
-1.74472e-40
2.12521e-40
1.89528e-39
1.50829e-39
-2.12823e-40
2.94081e-40
2.67069e-39
2.16378e-39
-2.41888e-40
3.87476e-40
3.61603e-39
2.98667e-39
-2.5217e-40
4.85595e-40
4.70403e-39
3.96626e-39
-2.33766e-40
5.77957e-40
5.87899e-39
5.06726e-39
-1.78478e-40
6.51885e-40
7.05825e-39
6.22788e-39
-8.21892e-41
6.94617e-40
8.1399e-39
7.36309e-39
5.31428e-41
6.95978e-40
9.01643e-39
8.37359e-39
2.18548e-40
6.5096e-40
9.59198e-39
9.15956e-39
3.98671e-40
5.61422e-40
9.79948e-39
9.63673e-39
5.7402e-40
4.36331e-40
9.6135e-39
9.75119e-39
7.24431e-40
2.90309e-40
9.05532e-39
9.48944e-39
8.32878e-40
1.40826e-40
8.18893e-39
8.88098e-39
8.88653e-40
4.77039e-42
7.10898e-39
7.99286e-39
8.89078e-40
-1.04674e-40
5.92373e-39
6.91749e-39
8.39388e-40
-1.80043e-40
4.73741e-39
5.75684e-39
7.50959e-40
-2.20107e-40
3.63569e-39
4.60675e-39
6.38494e-40
-2.28965e-40
2.67713e-39
3.54459e-39
5.16999e-40
-2.14179e-40
1.89114e-39
2.62232e-39
3.99288e-40
-1.84611e-40
1.28136e-39
1.86526e-39
2.94483e-40
-1.48538e-40
8.32576e-40
1.2756e-39
2.07592e-40
-1.12426e-40
5.18666e-40
8.38684e-40
1.39976e-40
-8.04469e-41
3.09706e-40
5.30129e-40
9.03331e-41
-5.46055e-41
1.77207e-40
3.22146e-40
5.58208e-41
-3.52452e-41
9.71253e-41
1.88191e-40
3.30427e-41
-2.1671e-41
5.09714e-41
1.05685e-40
1.87425e-41
-1.27105e-41
2.56008e-41
5.70537e-41
1.019e-41
-7.11883e-42
1.22986e-41
2.96075e-41
5.31151e-42
-3.81053e-42
5.64713e-42
1.47692e-41
2.6549e-42
-1.95068e-42
2.47616e-42
7.08175e-42
1.27275e-42
-9.55552e-43
1.03566e-42
3.26396e-42
5.85279e-43
-4.48114e-43
4.12585e-43
1.44598e-42
2.58209e-43
-2.01259e-43
1.5625e-43
6.15719e-43
1.09299e-43
-8.65966e-44
5.61037e-44
2.51999e-43
4.43961e-44
-3.57062e-44
1.90279e-44
9.91302e-44
1.73059e-44
-1.41121e-44
6.06154e-45
3.74795e-44
6.47443e-45
-5.34726e-45
1.79767e-45
1.36194e-44
2.32501e-45
-1.94312e-45
4.88477e-46
4.75661e-45
7.98534e-46
-6.72629e-46
1.23581e-46
1.59474e-45
2.99648e-46
-2.68498e-46
-3.39707e-47
5.34175e-46
-4.2304e-79
-2.3934e-79
4.80758e-79
2.97058e-79
-5.16526e-78
-2.77927e-78
7.73632e-78
5.35033e-78
-7.42423e-77
-3.7955e-77
1.1372e-76
7.74327e-77
-1.02681e-75
-4.97098e-76
1.60853e-75
1.07882e-75
-1.36639e-74
-6.24146e-75
2.18912e-74
1.44687e-74
-1.74935e-73
-7.50959e-74
2.86627e-73
1.86787e-73
-2.15461e-72
-8.65398e-73
3.61022e-72
2.321e-72
-2.55282e-71
-9.54623e-72
4.37403e-71
2.77584e-71
-2.90938e-70
-1.0073e-70