# vtk DataFile Version 2.0
dg(2) output generated by Nextsim
ASCII
DATASET UNSTRUCTURED_GRID
FIELD FieldData 1
TIME 1 1 double
0
POINTS 16 DOUBLE
0	0	0
0.5	0	0
0.5	0.5	0
0	0.5	0
0.5	0	0
1	0	0
1	0.5	0
0.5	0.5	0
0	0.5	0
0.5	0.5	0
0.5	1	0
0	1	0
0.5	0.5	0
1	0.5	0
1	1	0
0.5	1	0
CELLS 4 20
4 0 1 2 3
4 4 5 6 7
4 8 9 10 11
4 12 13 14 15
CELL_TYPES 4
9 9 9 9 
POINT_DATA 16
SCALARS dg2 DOUBLE 
LOOKUP_TABLE default
-0.000200022
-0.000189748
-0.000437012
-7.34926e-05
-0.00636225
-0.00657637
-0.0147225
-0.0145677
0.101055
0.103664
-0.0745515
-0.0861642
-0.268172
-0.262641
-0.286191
-0.305691
