# vtk DataFile Version 2.0
dg(2) output generated by Nextsim
ASCII
DATASET UNSTRUCTURED_GRID
FIELD FieldData 1
TIME 1 1 double
0
POINTS 16 DOUBLE
0	0	0
0.5	0	0
0.5	0.5	0
0	0.5	0
0.5	0	0
1	0	0
1	0.5	0
0.5	0.5	0
0	0.5	0
0.5	0.5	0
0.5	1	0
0	1	0
0.5	0.5	0
1	0.5	0
1	1	0
0.5	1	0
CELLS 4 20
4 0 1 2 3
4 4 5 6 7
4 8 9 10 11
4 12 13 14 15
CELL_TYPES 4
9 9 9 9 
POINT_DATA 16
SCALARS dg2 DOUBLE 
LOOKUP_TABLE default
-0.000342849
-0.000326276
-0.00075139
-0.000123703
-0.00799421
-0.00845471
-0.0186573
-0.0185593
0.0958295
0.0993388
-0.0741358
-0.0894275
-0.263002
-0.253306
-0.283235
-0.309992
