# vtk DataFile Version 2.0
dg(2) output generated by Nextsim
ASCII
DATASET UNSTRUCTURED_GRID
FIELD FieldData 1
TIME 1 1 double
0
POINTS 16 DOUBLE
0	0	0
0.5	0	0
0.5	0.5	0
0	0.5	0
0.5	0	0
1	0	0
1	0.5	0
0.5	0.5	0
0	0.5	0
0.5	0.5	0
0.5	1	0
0	1	0
0.5	0.5	0
1	0.5	0
1	1	0
0.5	1	0
CELLS 4 20
4 0 1 2 3
4 4 5 6 7
4 8 9 10 11
4 12 13 14 15
CELL_TYPES 4
9 9 9 9 
POINT_DATA 16
SCALARS dg2 DOUBLE 
LOOKUP_TABLE default
-0.000633452
-0.000605711
-0.00139563
-0.000221603
-0.0101313
-0.0111676
-0.0239903
-0.0241211
0.0876404
0.0926107
-0.0734434
-0.0944308
-0.254693
-0.238
-0.278484
-0.315771
