# vtk DataFile Version 2.0
dg(2) output generated by Nextsim
ASCII
DATASET UNSTRUCTURED_GRID
FIELD FieldData 1
TIME 1 1 double
0
POINTS 16 DOUBLE
0	0	0
0.5	0	0
0.5	0.5	0
0	0.5	0
0.5	0	0
1	0	0
1	0.5	0
0.5	0.5	0
0	0.5	0
0.5	0.5	0
0.5	1	0
0	1	0
0.5	0.5	0
1	0.5	0
1	1	0
0.5	1	0
CELLS 4 20
4 0 1 2 3
4 4 5 6 7
4 8 9 10 11
4 12 13 14 15
CELL_TYPES 4
9 9 9 9 
POINT_DATA 16
SCALARS dg2 DOUBLE 
LOOKUP_TABLE default
-0.000130831
-0.000123865
-0.000285331
-4.85785e-05
-0.00526917
-0.00537753
-0.012133
-0.0119728
0.10423
0.106306
-0.0747945
-0.0841546
-0.271264
-0.268152
-0.287957
-0.30285
