# vtk DataFile Version 2.0
dg(2) output generated by Nextsim
ASCII
DATASET UNSTRUCTURED_GRID
FIELD FieldData 1
TIME 1 1 double
0
POINTS 16 DOUBLE
0	0	0
0.5	0	0
0.5	0.5	0
0	0.5	0
0.5	0	0
1	0	0
1	0.5	0
0.5	0.5	0
0	0.5	0
0.5	0.5	0
0.5	1	0
0	1	0
0.5	0.5	0
1	0.5	0
1	1	0
0.5	1	0
CELLS 4 20
4 0 1 2 3
4 4 5 6 7
4 8 9 10 11
4 12 13 14 15
CELL_TYPES 4
9 9 9 9 
POINT_DATA 16
SCALARS dg2 DOUBLE 
LOOKUP_TABLE default
-8.72554e-06
-8.21449e-06
-1.89345e-05
-3.34061e-06
-0.00145582
-0.00143587
-0.00330479
-0.0032406
0.113936
0.114445
-0.0754933
-0.0778873
-0.280491
-0.284253
-0.293219
-0.293122
