# vtk DataFile Version 2.0
Structured output generated by Nextsim
ASCII
DATASET STRUCTURED_POINTS
DIMENSIONS 3 3 1
ORIGIN 0 0 0
SPACING 0.5 0.5 0.5
POINT_DATA 9
SCALARS interpolate DOUBLE 1
LOOKUP_TABLE default
3.83027e-09
8.57915e-08
1.67753e-07
1.94433e-09
9.6282e-07
1.9237e-06
5.83909e-11
1.83985e-06
3.67964e-06
CELL_DATA 4
SCALARS average DOUBLE 1
LOOKUP_TABLE default
3.83027e-09
1.67753e-07
5.83909e-11
3.67964e-06
