# vtk DataFile Version 2.0
Structured output generated by Nextsim
ASCII
DATASET STRUCTURED_POINTS
DIMENSIONS 3 3 1
ORIGIN 0 0 0
SPACING 0.5 0.5 0.5
POINT_DATA 9
SCALARS interpolate DOUBLE 1
LOOKUP_TABLE default
1.28522e-07
4.68299e-06
9.23746e-06
6.48585e-08
8.55618e-05
0.000171059
1.1948e-09
0.000166441
0.00033288
CELL_DATA 4
SCALARS average DOUBLE 1
LOOKUP_TABLE default
1.28522e-07
9.23746e-06
1.1948e-09
0.00033288
