# vtk DataFile Version 2.0
Structured output generated by Nextsim
ASCII
DATASET STRUCTURED_POINTS
DIMENSIONS 3 3 1
ORIGIN 0 0 0
SPACING 0.5 0.5 0.5
POINT_DATA 9
SCALARS interpolate DOUBLE 1
LOOKUP_TABLE default
2.57073e-07
1.09019e-05
2.15466e-05
1.29562e-07
0.000231917
0.000463704
2.04996e-09
0.000452932
0.000905862
CELL_DATA 4
SCALARS average DOUBLE 1
LOOKUP_TABLE default
2.57073e-07
2.15466e-05
2.04996e-09
0.000905862
