# vtk DataFile Version 2.0
Structured output generated by Nextsim
ASCII
DATASET STRUCTURED_POINTS
DIMENSIONS 3 3 1
ORIGIN 0 0 0
SPACING 0.5 0.5 0.5
POINT_DATA 9
SCALARS interpolate DOUBLE 1
LOOKUP_TABLE default
2.35795e-08
6.53479e-07
1.28338e-06
1.19344e-08
9.07638e-06
1.81408e-05
2.89337e-10
1.74993e-05
3.49983e-05
CELL_DATA 4
SCALARS average DOUBLE 1
LOOKUP_TABLE default
2.35795e-08
1.28338e-06
2.89337e-10
3.49983e-05
