# vtk DataFile Version 2.0
Structured output generated by Nextsim
ASCII
DATASET STRUCTURED_POINTS
DIMENSIONS 101 101 1
ORIGIN 0 0 0
SPACING 0.01 0.01 0.01
POINT_DATA 10201
SCALARS interpolate DOUBLE 1
LOOKUP_TABLE default
0
0
0
0
0
0
0
0
0
0
0
0
0
0
0
0
0
0
0
0
0
0
0
0
0
0
0
0
0
0
0
0
0
0
0
0
0
0
0
0
0
0
0
0
0
0
0
0
0
0
0
0
0
0
0
0
0
0
0
0
0
0
0
0
0
0
0
0
0
0
0
0
0
0
0
0
0
0
0
0
0
0
0
0
0
0
0
0
0
0
0
0
0
0
0
0
0
0
0
0
0
0
0
0
0
0
0
0
0
0
0
0
0
0
0
0
0
0
0
0
0
0
0
0
0
0
0
0
0
0
0
0
0
0
0
0
0
0
0
0
0
0
0
0
0
0
0
0
0
0
0
0
0
0
0
0
0
0
0
0
0
0
0
0
0
0
0
0
0
0
0
0
0
0
0
0
0
0
0
0
0
0
0
0
0
0
0
0
0
0
0
0
0
0
0
0
0
0
0
0
0
0
0
0
0
0
0
0
0
0
0
0
0
0
0
0
0
0
0
0
0
0
0
0
0
0
0
0
0
0
0
0
0
0
0
0
0
0
0
0
0
0
0
0
0
0
0
0
0
0
0
0
0
0
0
0
0
0
0
0
0
0
0
0
0
0
0
0
0
0
0
0
0
0
0
0
0
0
0
0
0
0
0
0
0
0
0
0
0
0
0
0
0
0
0
0
0
0
0
0
0
0
0
0
0
0
0
0
0
0
0
0
0
0
0
0
0
0
0
0
0
0
0
0
0
0
0
0
0
0
0
0
0
0
0
0
0
0
0
0
0
0
0
0
0
0
0
0
0
0
0
0
0
0
0
0
0
0
0
0
0
0
0
0
0
0
0
0
0
0
0
0
0
0
0
0
0
0
0
0
0
0
0
0
0
0
0
0
0
0
0
0
0
0
0
0
0
0
0
0
0
0
0
0
0
0
0
0
0
0
0
0
0
0
0
0
0
0
0
0
0
0
0
0
0
0
0
0
0
0
0
0
0
0
0
0
0
0
0
0
0
0
0
0
0
0
0
0
0
0
0
0
0
0
0
0
0
0
0
0
0
0
0
0
0
0
0
0
0
0
0
0
0
0
0
0
0
0
0
0
0
0
0
0
0
0
0
0
0
0
0
0
0
0
0
0
0
0
0
0
0
0
0
0
0
0
0
0
0
0
0
0
0
0
0
0
0
0
0
0
0
0
0
0
0
0
0
0
0
0
0
0
0
0
0
0
0
0
0
0
0
0
0
0
0
0
0
0
0
0
0
0
0
0
0
0
0
0
0
0
0
0
0
0
0
0
0
0
0
0
0
0
0
0
0
0
0
0
0
0
0
0
0
0
0
0
0
0
0
0
0
0
0
0
0
0
0
0
0
0
0
0
0
0
0
0
0
0
0
0
0
0
0
0
0
0
0
0
0
0
0
0
0
0
0
0
0
0
0
0
0
0
0
0
0
0
0
0
0
0
0
0
0
0
0
0
0
0
0
0
0
0
0
0
0
0
0
0
0
0
0
0
0
0
0
0
0
0
0
0
0
1.10584e-20
2.27153e-20
3.32896e-20
1.96302e-20
0
0
0
0
0
0
0
0
0
0
0
0
0
0
0
0
0
0
0
0
0
0
0
0
0
0
0
0
0
0
0
0
0
0
0
0
0
0
0
0
0
0
0
0
0
0
0
0
0
0
0
0
0
0
0
0
0
0
0
0
0
0
0
0
0
0
0
0
0
0
0
0
0
0
0
0
0
0
0
0
0
0
0
0
0
0
0
0
0
0
0
0
0
0
4.09088e-20
1.19045e-19
2.91358e-19
6.56077e-19
1.28102e-18
1.80644e-18
1.0468e-18
1.53281e-19
8.82873e-20
1.2685e-20
0
0
0
0
0
0
0
0
0
0
0
0
0
0
0
0
0
0
0
0
0
0
0
0
0
0
0
0
0
0
0
0
0
0
0
0
0
0
0
0
0
0
0
0
0
0
0
0
0
0
0
0
0
0
0
0
0
0
0
0
0
0
0
0
0
0
0
0
0
0
0
0
0
0
0
0
0
0
0
0
0
0
0
0
0
0
0
0
0
8.95549e-20
6.02463e-19
2.69979e-18
7.40269e-18
1.69485e-17
3.59294e-17
6.66416e-17
9.03853e-17
5.14638e-17
7.45702e-18
4.22849e-18
6.03853e-19
3.31116e-19
1.32427e-20
0
0
0
0
0
0
0
0
0
0
0
0
0
0
0
0
0
0
0
0
0
0
0
0
0
0
0
0
0
0
0
0
0
0
0
0
0
0
0
0
0
0
0
0
0
0
0
0
0
0
0
0
0
0
0
0
0
0
0
0
0
0
0
0
0
0
0
0
0
0
0
0
0
0
0
0
0
0
0
0
0
0
0
0
0
5.79675e-20
6.6229e-19
5.8752e-18
3.80548e-17
1.63709e-16
4.23187e-16
9.05866e-16
1.8068e-15
3.18144e-15
4.14825e-15
2.32059e-15
3.34485e-16
1.86723e-16
2.662e-17
1.43935e-17
5.93182e-19
0
0
0
0
0
0
0
0
0
0
0
0
0
0
0
0
0
0
0
0
0
0
0
0
0
0
0
0
0
0
0
0
0
0
0
0
0
0
0
0
0
0
0
0
0
0
0
0
0
0
0
0
0
0
0
0
0
0
0
0
0
0
0
0
0
0
0
0
0
0
0
0
0
0
0
0
0
0
0
0
0
0
0
1.72266e-20
2.79938e-19
3.7819e-18
4.13735e-17
3.52268e-16
2.19419e-15
9.06355e-15
2.21013e-14
4.42093e-14
8.29152e-14
1.38514e-13
1.73551e-13
9.53891e-14
1.37612e-14
7.56321e-15
1.08193e-15
5.76841e-16
2.45986e-17
2.58556e-20
0
0
0
0
0
0
0
0
0
0
0
0
0
0
0
0
0
0
0
0
0
0
0
0
0
0
0
0
0
0
0
0
0
0
0
0
0
0
0
0
0
0
0
0
0
0
0
0
0
0
0
0
0
0
0
0
0
0
0
0
0
0
0
0
0
0
0
0
0
0
0
0
0
0
0
0
0
0
0
0
0
6.234e-20
1.13633e-18
1.75418e-17
2.25471e-16
2.35289e-15
1.91714e-14
1.14632e-13
4.5468e-13
1.04656e-12
1.95529e-12
3.44641e-12
5.45888e-12
6.5697e-12
3.54828e-12
5.16082e-13
2.79295e-13
4.03317e-14
2.12039e-14
9.40198e-16
1.10919e-18
0
0
0
0
0
0
0
0
0
0
0
0
0
0
0
0
0
0
0
0
0
0
0
0
0
0
0
0
0
0
0
0
0
0
0
0
0
0
0
0
0
0
0
0
0
0
0
0
0
0
0
0
0
0
0
0
0
0
0
0
0
0
0
0
0
0
0
0
0
0
0
0
0
0
0
0
0
0
0
0
1.99018e-19
4.00072e-18
6.88638e-17
1.00392e-15
1.22074e-14
1.20921e-13
9.39234e-13
5.37761e-12
2.04772e-11
4.45213e-11
7.76543e-11
1.28567e-10
1.92969e-10
2.22977e-10
1.18382e-10
1.75115e-11
9.33477e-12
1.37045e-12
7.10552e-13
3.29498e-14
4.40529e-17
4.9066e-20
0
0
0
0
0
0
0
0
0
0
0
0
0
0
0
0
0
0
0
0
0
0
0
0
0
0
0
0
0
0
0
0
0
0
0
0
0
0
0
0
0
0
0
0
0
0
0
0
0
0
0
0
0
0
0
0
0
0
0
0
0
0
0
0
0
0
0
0
0
0
0
0
0
0
0
0
0
2.25434e-20
5.70158e-19
1.25123e-17
2.36452e-16
3.81738e-15
5.21692e-14
5.95813e-13
5.56654e-12
4.10067e-11
2.24028e-10
8.18467e-10
1.68205e-09
2.73782e-09
4.25573e-09
6.04939e-09
6.70899e-09
3.50364e-09
5.32761e-10
2.79884e-10
4.21329e-11
2.15489e-11
1.05227e-12
1.61263e-15
2.01929e-18
0
0
0
0
0
0
0
0
0
0
0
0
0
0
0
0
0
0
0
0
0
0
0
0
0
0
0
0
0
0
0
0
0
0
0
0
0
0
0
0
0
0
0
0
0
0
0
0
0
0
0
0
0
0
0
0
0
0
0
0
0
0
0
0
0
0
0
0
0
0
0
0
0
0
0
0
5.39795e-20
1.47844e-18
3.52492e-17
7.25938e-16
1.28156e-14
1.92552e-13
2.44478e-12
2.59832e-11
2.27068e-10
1.57566e-09
8.17254e-09
2.86125e-08
5.56197e-08
8.44514e-08
1.23197e-07
1.65768e-07
1.76402e-07
9.07158e-08
1.43698e-08
7.44618e-09
1.16142e-09
5.86205e-10
3.03959e-11
5.41292e-14
7.69353e-17
0
0
0
0
0
0
0
0
0
0
0
0
0
0
0
0
0
0
0
0
0
0
0
0
0
0
0
0
0
0
0
0
0
0
0
0
0
0
0
0
0
0
0
0
0
0
0
0
0
0
0
0
0
0
0
0
0
0
0
0
0
0
0
0
0
0
0
0
0
0
0
0
0
0
0
1.17336e-19
3.46883e-18
8.96661e-17
2.00818e-15
3.86335e-14
6.33168e-13
8.77892e-12
1.02457e-10
1.00148e-09
8.09727e-09
5.24457e-08
2.56376e-07
8.58338e-07
1.57917e-06
2.23612e-06
3.06029e-06
3.89626e-06
3.97794e-06
2.01821e-06
3.38745e-07
1.73374e-07
2.83851e-08
1.41484e-08
7.87037e-10
1.6557e-12
2.70171e-15
0
0
0
0
0
0
0
0
0
0
0
0
0
0
0
0
0
0
0
0
0
0
0
0
0
0
0
0
0
0
0
0
0
0
0
0
0
0
0
0
0
0
0
0
0
0
0
0
0
0
0
0
0
0
0
0
0
0
0
0
0
0
0
0
0
0
0
0
0
0
0
0
0
0
2.36383e-19
7.3158e-18
2.04393e-16
4.97353e-15
1.04329e-13
1.8678e-12
2.82597e-11
3.58508e-10
3.79939e-09
3.36518e-08
2.48084e-07
1.48123e-06
6.75048e-06
2.15321e-05
3.75096e-05
4.95247e-05
6.35737e-05
7.65648e-05
7.50098e-05
3.76642e-05
6.85044e-06
3.47055e-06
6.06383e-07
2.98811e-07
1.80635e-08
4.58105e-11
8.69918e-14
0
0
0
0
0
0
0
0
0
0
0
0
0
0
0
0
0
0
0
0
0
0
0
0
0
0
0
0
0
0
0
0
0
0
0
0
0
0
0
0
0
0
0
0
0
0
0
0
0
0
0
0
0
0
0
0
0
0
0
0
0
0
0
0
0
0
0
0
0
0
0
0
1.31157e-20
4.45331e-19
1.40687e-17
4.12067e-16
1.08526e-14
2.4804e-13
4.86279e-12
8.07972e-11
1.12367e-09
1.29425e-08
1.22924e-07
9.684e-07
6.38168e-06
3.45219e-05
0.000144222
0.000435363
0.000718131
0.000884143
0.00106458
0.00121282
0.00114096
0.000570185
0.000115898
5.83262e-05
1.11152e-05
5.42458e-06
3.62311e-07
1.13623e-09
2.55246e-12
0
0
0
0
0
0
0
0
0
0
0
0
0
0
0
0
0
0
0
0
0
0
0
0
0
0
0
0
0
0
0
0
0
0
0
0
0
0
0
0
0
0
0
0
0
0
0
0
0
0
0
0
0
0
0
0
0
0
0
0
0
0
0
0
0
0
0
0
0
0
0
2.1924e-20
7.62945e-19
2.46854e-17
7.39888e-16
2.04559e-14
5.06494e-13
1.08503e-11
1.98479e-10
3.05563e-09
3.89551e-08
4.04899e-07
3.40144e-06
2.32967e-05
0.000133497
0.000638329
0.0023781
0.00670692
0.0104655
0.0120213
0.0135841
0.0146478
0.0132571
0.00666459
0.00158311
0.000796283
0.000170517
8.26558e-05
6.23504e-06
2.49822e-08
6.77419e-11
0
0
0
0
0
0
0
0
0
0
0
0
0
0
0
0
0
0
0
0
0
0
0
0
0
0
0
0
0
0
0
0
0
0
0
0
0
0
0
0
0
0
0
0
0
0
0
0
0
0
0
0
0
0
0
0
0
0
0
0
0
0
0
0
0
0
0
0
0
0
3.19901e-20
1.1445e-18
3.80509e-17
1.17118e-15
3.32271e-14
8.64424e-13
2.00581e-11
4.01813e-10
6.84777e-09
9.75831e-08
1.13888e-06
1.06398e-05
7.81186e-05
0.0004526
0.00216667
0.00882645
0.0279325
0.0715478
0.105233
0.112979
0.120028
0.122763
0.107432
0.0556055
0.0165487
0.00841493
0.00211356
0.00102271
8.98116e-05
4.80089e-07
1.61156e-09
0
0
0
0
0
0
0
0
0
0
0
0
0
0
0
0
0
0
0
0
0
0
0
0
0
0
0
0
0
0
0
0
0
0
0
0
0
0
0
0
0
0
0
0
0
0
0
0
0
0
0
0
0
0
0
0
0
0
0
0
0
0
0
0
0
0
0
0
0
3.86697e-20
1.42638e-18
4.8877e-17
1.54995e-15
4.52826e-14
1.21244e-12
2.95656e-11
6.40379e-10
1.19606e-08
1.89524e-07
2.497e-06
2.66555e-05
0.000223285
0.00141841
0.00673205
0.0253122
0.082802
0.202411
0.435517
0.595422
0.601496
0.604817
0.591378
0.508685
0.288616
0.121158
0.0638114
0.0200773
0.00978928
0.00104588
7.91724e-06
3.39832e-08
0
0
0
0
0
0
0
0
0
0
0
0
0
0
0
0
0
0
0
0
0
0
0
0
0
0
0
0
0
0
0
0
0
0
0
0
0
0
0
0
0
0
0
0
0
0
0
0
0
0
0
0
0
0
0
0
0
0
0
0
0
0
0
0
0
0
0
0
3.57408e-20
1.36281e-18
4.82665e-17
1.58169e-15
4.7742e-14
1.32031e-12
3.32432e-11
7.56257e-10
1.52152e-08
2.63896e-07
3.8754e-06
4.70812e-05
0.000458619
0.00343324
0.018685
0.069949
0.186292
0.438466
0.676719
0.870261
0.999972
0.9997
0.997346
0.981868
0.911124
0.722879
0.524906
0.304992
0.134023
0.0671761
0.00935088
0.000109318
6.26253e-07
0
0
0
0
0
0
0
0
0
0
0
0
0
0
0
0
0
0
0
0
0
0
0
0
0
0
0
0
0
0
0
0
0
0
0
0
0
0
0
0
0
0
0
0
0
0
0
0
0
0
0
0
0
0
0
0
0
0
0
0
0
0
0
0
0
0
0
2.18515e-20
8.63648e-19
3.17064e-17
1.07705e-15
3.37018e-14
9.66257e-13
2.52242e-11
5.95015e-10
1.2566e-08
2.33561e-07
3.74171e-06
5.06325e-05
0.000563379
0.00496512
0.0328292
0.150087
0.420841
0.663019
0.863885
1
1
1
0.999998
0.999977
0.999744
0.997664
0.983517
0.916716
0.733392
0.534657
0.290221
0.0590695
0.00122095
9.90135e-06
5.77946e-20
4.77094e-20
3.78654e-20
2.88913e-20
2.11919e-20
1.49431e-20
1.01292e-20
0
0
0
0
0
0
0
0
0
0
0
0
0
0
0
0
0
0
0
0
0
0
0
0
0
0
0
0
0
0
0
0
0
0
0
0
0
0
0
0
0
0
0
0
0
0
0
0
0
0
0
0
0
0
0
0
0
0
0
0
2.58644e-19
9.89058e-18
3.50142e-16
1.14251e-14
3.41852e-13
9.32223e-12
2.3e-10
5.08859e-09
9.98522e-08
1.71355e-06
2.52501e-05
0.000311884
0.00312345
0.0241644
0.133976
0.46984
0.857194
1
1
1
1
1
1
1
0.999999
0.99998
0.999758
0.997649
0.982124
0.900442
0.633458
0.227617
0.0104801
0.000131016
3.46298e-19
2.85173e-19
2.25683e-19
1.71703e-19
1.25585e-19
8.8301e-20
5.96838e-20
3.87795e-20
2.42212e-20
1.45421e-20
0
0
0
0
0
0
0
0
0
0
0
0
0
0
0
0
0
0
0
0
0
0
0
0
0
0
0
0
0
0
0
0
0
0
0
0
0
0
0
0
0
0
0
0
0
0
0
0
0
0
0
0
0
0
0
0
1.18222e-20
4.93285e-19
1.9126e-17
6.86452e-16
2.27045e-14
6.88387e-13
1.90129e-11
4.74761e-10
1.06194e-08
2.10349e-07
3.62222e-06
5.2964e-05
0.00064034
0.00617006
0.0448919
0.22658
0.687267
1
1
1
1
1
1
1
1
1
0.999998
0.999967
0.999591
0.995908
0.968459
0.827285
0.417413
0.0637014
0.00140111
2.00084e-18
1.64399e-18
1.29745e-18
9.84393e-19
7.18004e-19
5.0345e-19
3.39352e-19
2.19887e-19
1.36961e-19
8.20038e-20
4.7196e-20
2.61097e-20
1.38841e-20
0
0
0
0
0
0
0
0
0
0
0
0
0
0
0
0
0
0
0
0
0
0
0
0
0
0
0
0
0
0
0
0
0
0
0
0
0
0
0
0
0
0
0
0
0
0
0
0
0
0
0
0
0
8.03758e-20
3.32237e-18
1.27133e-16
4.48373e-15
1.44995e-13
4.27305e-12
1.13922e-10
2.72322e-09
5.77272e-08
1.07019e-06
1.70378e-05
0.000227301
0.00245681
0.020479
0.121854
0.453793
0.850173
1
1
1
1
1
1
1
1
1
0.999999
0.999986
0.999822
0.99814
0.984848
0.90996
0.649615
0.237691
0.0114933
1.11445e-17
9.13958e-18
7.19385e-18
5.44358e-18
3.95993e-18
2.76925e-18
1.86166e-18
1.20308e-18
7.47376e-19
4.46298e-19
2.5618e-19
1.41349e-19
7.49653e-20
3.82157e-20
1.87254e-20
0
0
0
0
0
0
0
0
0
0
0
0
0
0
0
0
0
0
0
0
0
0
0
0
0
0
0
0
0
0
0
0
0
0
0
0
0
0
0
0
0
0
0
0
0
0
0
0
0
0
0
1.44681e-19
6.06972e-18
2.35735e-16
8.43779e-15
2.7688e-13
8.27736e-12
2.23743e-10
5.41828e-09
1.16212e-07
2.17561e-06
3.47235e-05
0.000458047
0.00481062
0.0380741
0.208075
0.674386
1
1
1
1
1
1
1
1
1
1
1
0.999999
0.999978
0.9997
0.996759
0.973067
0.841598
0.431983
0.0664144
5.98188e-17
4.89941e-17
3.84651e-17
2.9032e-17
2.10653e-17
1.46936e-17
9.85267e-18
6.35091e-18
3.93521e-18
2.34391e-18
1.34199e-18
7.38563e-19
3.90703e-19
1.98665e-19
9.70966e-20
4.56131e-20
2.05954e-20
0
0
0
0
0
0
0
0
0
0
0
0
0
0
0
0
0
0
0
0
0
0
0
0
0
0
0
0
0
0
0
0
0
0
0
0
0
0
0
0
0
0
0
0
0
0
0
0
2.2499e-20
1.01194e-18
4.21375e-17
1.61703e-15
5.68911e-14
1.8238e-12
5.28817e-11
1.37446e-09
3.16685e-08
6.3782e-07
1.10266e-05
0.000159744
0.00187537
0.0169737
0.109401
0.43696
0.842807
1
1
1
1
1
1
1
1
1
1
1
0.999999
0.999991
0.999872
0.99855
0.987242
0.918401
0.661
0.231171
3.09885e-16
2.53223e-16
1.98316e-16
1.49313e-16
1.08073e-16
7.51979e-17
5.0299e-17
3.23421e-17
1.99907e-17
1.18776e-17
6.7837e-18
3.7242e-18
1.96527e-18
9.96841e-19
4.86004e-19
2.2775e-19
1.02582e-19
4.44098e-20
1.84786e-20
0
0
0
0
0
0
0
0
0
0
0
0
0
0
0
0
0
0
0
0
0
0
0
0
0
0
0
0
0
0
0
0
0
0
0
0
0
0
0
0
0
0
0
0
0
0
3.2553e-20
1.47925e-18
6.22679e-17
2.41595e-15
8.5945e-14
2.78586e-12
8.16677e-11
2.14547e-09
4.99398e-08
1.01522e-06
1.76885e-05
0.000257712
0.00303253
0.0273255
0.172676
0.648142
1
1
1
1
1
1
1
1
1
1
1
1
1
0.999999
0.999983
0.999749
0.997027
0.973038
0.828529
0.352754
1.55248e-15
1.26171e-15
9.85795e-16
7.40453e-16
5.3467e-16
3.71146e-16
2.47665e-16
1.5887e-16
9.79643e-17
5.80679e-17
3.30856e-17
1.81206e-17
9.53955e-18
4.82725e-18
2.34791e-18
1.09766e-18
4.93233e-19
2.13024e-19
8.84284e-20
3.52806e-20
1.35286e-20
0
0
0
0
0
0
0
0
0
0
0
0
0
0
0
0
0
0
0
0
0
0
0
0
0
0
0
0
0
0
0
0
0
0
0
0
0
0
0
0
0
0
0
0
1.74419e-20
8.18592e-19
3.57869e-17
1.44346e-15
5.34197e-14
1.80265e-12
5.50547e-11
1.50802e-09
3.66307e-08
7.77852e-07
1.4173e-05
0.000216061
0.00265922
0.0250413
0.165052
0.642467
1
1
1
1
1
1
1
1
1
1
1
1
1
0.999999
0.999986
0.999789
0.99739
0.975266
0.835988
0.35831
7.47401e-15
6.05998e-15
4.724e-15
3.54024e-15
2.55053e-15
1.76643e-15
1.17604e-15
7.52672e-16
4.63059e-16
2.73847e-16
1.55674e-16
8.50652e-17
4.46798e-17
2.25573e-17
1.09464e-17
5.10579e-18
2.28903e-18
9.86357e-19
4.08511e-19
1.62613e-19
6.22131e-20
2.28751e-20
0
0
0
0
0
0
0
0
0
0
0
0
0
0
0
0
0
0
0
0
0
0
0
0
0
0
0
0
0
0
0
0
0
0
0
0
0
0
0
0
0
0
0
0
4.23766e-19
1.9358e-17
8.18522e-16
3.17665e-14
1.1243e-12
3.6018e-11
1.03494e-09
2.63724e-08
5.87479e-07
1.12281e-05
0.000179506
0.00231599
0.0228431
0.157393
0.636677
0.99998
1
1
1
1
1
1
1
1
1
1
1
1
0.999999
0.999989
0.99982
0.99767
0.977007
0.84186
0.362693
3.46725e-14
2.80539e-14
2.18215e-14
1.63176e-14
1.17301e-14
8.10613e-15
5.385e-15
3.43883e-15
2.11098e-15
1.24565e-15
7.06552e-16
3.8523e-16
2.01891e-16
1.01703e-16
4.92444e-17
2.29185e-17
1.02522e-17
4.40795e-18
1.82157e-18
7.235e-19
2.76189e-19
1.01329e-19
3.56932e-20
1.18195e-20
0
0
0
0
0
0
0
0
0
0
0
0
0
0
0
0
0
0
0
0
0
0
0
0
0
0
0
0
0
0
0
0
0
0
0
0
0
0
0
0
0
0
2.17895e-19
1.01526e-17
4.50463e-16
1.83791e-14
6.83979e-13
2.30414e-11
6.9622e-10
1.86563e-08
4.37008e-07
8.78158e-06
0.000147574
0.0020005
0.0207135
0.149528
0.629965
0.999289
0.999999
1
1
1
1
1
1
1
1
1
1
1
0.999999
0.999988
0.999809
0.997508
0.97556
0.83533
0.357458
1.55019e-13
1.25165e-13
9.71553e-14
7.2498e-14
5.20064e-14
3.58634e-14
2.37741e-14
1.51499e-14
9.28027e-15
5.4645e-15
3.09295e-15
1.68277e-15
8.80028e-16
4.42369e-16
2.13738e-16
9.92624e-17
4.43084e-17
1.90099e-17
7.83905e-18
3.10691e-18
1.18351e-18
4.33285e-19
1.52317e-19
5.0397e-20
2.34257e-20
0
0
0
0
0
0
0
0
0
0
0
0
0
0
0
0
0
0
0
0
0
0
0
0
0
0
0
0
0
0
0
0
0
0
0
0
0
0
0
0
1.28057e-20
1.34854e-19
5.19618e-18
2.38765e-16
1.02499e-14
4.0172e-13
1.4251e-11
4.53373e-10
1.2787e-08
3.15109e-07
6.65652e-06
0.000117505
0.00167222
0.0181621
0.137336
0.603988
0.983218
0.999966
1
1
1
1
1
1
1
1
1
1
1
0.999999
0.999973
0.999591
0.995104
0.957742
0.765224
0.30297
6.67846e-13
5.38153e-13
4.16884e-13
3.10456e-13
2.22255e-13
1.52956e-13
1.0119e-13
6.43513e-14
3.93388e-14
2.31165e-14
1.30574e-14
7.08951e-15
3.69995e-15
1.85606e-15
8.94944e-16
4.14767e-16
1.84761e-16
7.91064e-17
3.25537e-17
1.28757e-17
4.89462e-18
1.78825e-18
6.27415e-19
2.07435e-19
9.65872e-20
0
0
0
0
0
0
0
0
0
0
0
0
0
0
0
0
0
0
0
0
0
0
0
0
0
0
0
0
0
0
0
0
0
0
0
0
0
0
0
1.43477e-20
4.75892e-20
1.81183e-19
2.17561e-18
8.48111e-17
3.70948e-15
1.49923e-13
5.48704e-12
1.80081e-10
5.24097e-09
1.3338e-07
2.91495e-06
5.33623e-05
0.000790291
0.00899641
0.0724773
0.355823
0.790584
0.998979
0.999998
1
1
1
1
1
1
1
1
1
0.999999
0.999994
0.999903
0.99868
0.98569
0.892954
0.533713
0.127678
2.77219e-12
2.22956e-12
1.72382e-12
1.28126e-12
9.15475e-13
6.28805e-13
4.15182e-13
2.63517e-13
1.60775e-13
9.42902e-14
5.3155e-14
2.88036e-14
1.50026e-14
7.51109e-15
3.61449e-15
1.67184e-15
7.43256e-16
3.17597e-16
1.30437e-16
5.14883e-17
1.95341e-17
7.12266e-18
2.49429e-18
8.24079e-19
3.84403e-19
0
0
0
0
0
0
0
0
0
0
0
0
0
0
0
0
0
0
0
0
0
0
0
0
0
0
0
0
0
0
0
0
0
0
0
0
0
0
1.72595e-20
5.89125e-20
1.93525e-19
6.12956e-19
1.92919e-18
8.61875e-18
1.49503e-16
5.27829e-15
1.89548e-13
6.37977e-12
2.00617e-10
5.87713e-09
1.58377e-07
3.75066e-06
7.42747e-05
0.00118488
0.0144019
0.121391
0.587675
0.979518
0.999942
0.999993
0.999996
0.999999
1
1
1
1
1
0.999999
0.999993
0.999957
0.999609
0.996151
0.964603
0.783838
0.31574
1.3276e-11
1.10863e-11
8.89988e-12
6.86842e-12
5.09562e-12
3.63412e-12
2.49148e-12
1.64197e-12
1.0402e-12
6.33448e-13
3.70798e-13
2.08637e-13
1.12841e-13
5.86629e-14
2.93137e-14
1.40795e-14
6.49984e-15
2.88414e-15
1.23005e-15
5.04213e-16
1.9865e-16
7.52213e-17
2.73752e-17
9.56903e-18
3.15945e-18
1.47651e-18
0
0
0
0
0
0
0
0
0
0
0
0
0
0
0
0
0
0
0
0
0
0
0
0
0
0
0
0
0
0
0
0
0
0
0
0
0
1.91395e-20
6.80207e-20
2.32614e-19
7.65419e-19
2.42343e-18
7.38856e-18
2.20215e-17
8.14965e-17
1.17001e-15
4.56989e-14
1.85801e-12
6.85645e-11
2.24919e-09
6.45636e-08
1.5904e-06
3.27755e-05
0.000545695
0.00696652
0.0626114
0.338058
0.78049
0.998492
0.999789
0.999881
0.999984
0.999991
0.999999
0.999998
0.999997
0.999995
0.999982
0.999895
0.999574
0.997593
0.986528
0.905041
0.550395
0.133955
5.12355e-11
4.27102e-11
3.42269e-11
2.63678e-11
1.95273e-11
1.39018e-11
9.51371e-12
6.2586e-12
3.95773e-12
2.40576e-12
1.40569e-12
7.89501e-13
4.26223e-13
2.21175e-13
1.10318e-13
5.28889e-14
2.43715e-14
1.07943e-14
4.59514e-15
1.88013e-15
7.39368e-16
2.79453e-16
1.01513e-16
3.54214e-17
1.16884e-17
5.47288e-18
0
0
0
0
0
0
0
0
0
0
0
0
0
0
0
0
0
0
0
0
0
0
0
0
0
0
0
0
0
0
0
0
0
0
0
0
1.95488e-20
7.23465e-20
2.57622e-19
8.82668e-19
2.90968e-18
9.2281e-18
2.81569e-17
8.26611e-17
2.33962e-16
6.60652e-16
2.80831e-15
5.0859e-14
1.80596e-12
6.59627e-11
2.29864e-09
7.23698e-08
1.95467e-06
4.40961e-05
0.000800776
0.0110618
0.105532
0.570557
0.973111
0.99551
0.997543
0.999619
0.999787
0.999964
0.999953
0.999938
0.999908
0.999735
0.998665
0.995764
0.982754
0.949928
0.793097
0.329033
2.20004e-10
1.90454e-10
1.58499e-10
1.26804e-10
9.75225e-11
7.21001e-11
5.12415e-11
3.50071e-11
2.29898e-11
1.45128e-11
8.80649e-12
5.13668e-12
2.87995e-12
1.55205e-12
8.03975e-13
4.00301e-13
1.91574e-13
8.81218e-14
3.89606e-14
1.65561e-14
6.76199e-15
2.65444e-15
1.00149e-15
3.6315e-16
1.26499e-16
4.17201e-17
1.95735e-17
0
0
0
0
0
0
0
0
0
0
0
0
0
0
0
0
0
0
0
0
0
0
0
0
0
0
0
0
0
0
0
0
0
0
0
1.83869e-20
7.08677e-20
2.62807e-19
9.37681e-19
3.21877e-18
1.06298e-17
3.37712e-17
1.03215e-16
3.03456e-16
8.58277e-16
2.33859e-15
6.32853e-15
2.6749e-14
5.73877e-13
2.28584e-11
8.57927e-10
2.82314e-08
7.96308e-07
1.87706e-05
0.000356815
0.00518327
0.0526182
0.314329
0.732833
0.934512
0.964898
0.993313
0.996341
0.999308
0.999144
0.99895
0.998614
0.996869
0.986593
0.965726
0.891164
0.782378
0.508565
0.14054
7.88895e-10
6.81856e-10
5.66549e-10
4.52529e-10
3.4747e-10
2.56473e-10
1.81977e-10
1.24119e-10
8.13763e-11
5.12854e-11
3.10685e-11
1.80914e-11
1.01262e-11
5.44798e-12
2.81732e-12
1.40037e-12
6.69043e-13
3.07228e-13
1.35601e-13
5.75242e-14
2.34543e-14
9.19125e-15
3.46179e-15
1.25313e-15
4.35791e-16
1.43658e-16
6.75373e-17
0
0
0
0
0
0
0
0
0
0
0
0
0
0
0
0
0
0
0
0
0
0
0
0
0
0
0
0
0
0
0
0
0
0
1.59222e-20
6.39211e-20
2.46895e-19
9.17465e-19
3.27992e-18
1.12802e-17
3.73199e-17
1.18773e-16
3.63609e-16
1.07074e-15
3.03284e-15
8.26279e-15
2.16553e-14
5.47301e-14
1.39108e-13
5.93467e-13
1.28161e-11
4.92417e-10
1.73787e-08
5.26314e-07
1.32921e-05
0.000269683
0.00415142
0.0439619
0.261685
0.477824
0.714607
0.919344
0.956209
0.98978
0.988226
0.986527
0.983925
0.971848
0.90363
0.804751
0.55856
0.32181
0.145109
3.03445e-09
2.72414e-09
2.35097e-09
1.95044e-09
1.55552e-09
1.19255e-09
8.78871e-10
6.22617e-10
4.23992e-10
2.77543e-10
1.74637e-10
1.05625e-10
6.14076e-11
3.43159e-11
1.84324e-11
9.51648e-12
4.72255e-12
2.25256e-12
1.03269e-12
4.55048e-13
1.92722e-13
7.84488e-14
3.06916e-14
1.15406e-14
4.17062e-15
1.44808e-15
4.77156e-16
2.24796e-16
0
0
0
0
0
0
0
0
0
0
0
0
0
0
0
0
0
0
0
0
0
0
0
0
0
0
0
0
0
0
0
0
0
1.26912e-20
5.30772e-20
2.13558e-19
8.26632e-19
3.07809e-18
1.10258e-17
3.79914e-17
1.2592e-16
4.01445e-16
1.23103e-15
3.63087e-15
1.03001e-14
2.8103e-14
7.37451e-14
1.86116e-13
4.51842e-13
1.05679e-12
2.40029e-12
5.41391e-12
1.73562e-11
2.91554e-10
1.03687e-08
3.39684e-07
9.312e-06
0.000205014
0.00342113
0.0391769
0.250138
0.460176
0.695958
0.896012
0.888168
0.880181
0.869273
0.823812
0.575529
0.335177
0.152243
1.11698e-08
1.08352e-08
1.01041e-08
9.05796e-09
7.80594e-09
6.46665e-09
5.14978e-09
3.94228e-09
2.90103e-09
2.0521e-09
1.39534e-09
9.12001e-10
5.72979e-10
3.46023e-10
2.00859e-10
1.12071e-10
6.0104e-11
3.09828e-11
1.53511e-11
7.31068e-12
3.34633e-12
1.47221e-12
6.2252e-13
2.52999e-13
9.88237e-14
3.71001e-14
1.33862e-14
4.64064e-15
1.52857e-15
7.21695e-16
0
0
0
0
0
0
0
0
0
0
0
0
0
0
0
0
0
0
0
0
0
0
0
0
0
0
0
0
0
0
0
0
0
4.05638e-20
1.70041e-19
6.85693e-19
2.65984e-18
9.92466e-18
3.56205e-17
1.22969e-16
4.08312e-16
1.304e-15
4.00538e-15
1.18326e-14
3.36182e-14
9.18589e-14
2.41385e-13
6.10016e-13
1.48273e-12
3.47042e-12
7.87814e-12
1.73766e-11
3.69687e-11
7.56767e-11
1.51636e-10
4.20563e-10
6.37034e-09
2.11774e-07
6.32591e-06
0.000152189
0.00277163
0.0345105
0.236294
0.405574
0.399131
0.392664
0.384049
0.349081
0.159729
3.39888e-08
3.56293e-08
3.59049e-08
3.47832e-08
3.2393e-08
2.89998e-08
2.49572e-08
2.06467e-08
1.64193e-08
1.25517e-08
9.22339e-09
6.51501e-09
4.42357e-09
2.88707e-09
1.8112e-09
1.09219e-09
6.33055e-10
3.52694e-10
1.8887e-10
9.72141e-11
4.80946e-11
2.28696e-11
1.04523e-11
4.59147e-12
1.93854e-12
7.86641e-13
3.06798e-13
1.15001e-13
4.14299e-14
1.43414e-14
4.72233e-15
2.23456e-15
0
0
0
0
0
0
0
0
0
0
0
0
0
0
0
0
0
0
0
0
0
0
0
0
0
0
0
0
0
0
0
0
2.85251e-20
1.246e-19
5.23531e-19
2.11587e-18
8.22515e-18
3.07537e-17
1.10596e-16
3.8252e-16
1.27244e-15
4.07078e-15
1.25247e-14
3.7059e-14
1.05451e-13
2.88558e-13
7.5933e-13
1.9215e-12
4.67629e-12
1.09558e-11
2.4877e-11
5.48461e-11
1.16604e-10
2.38363e-10
4.68503e-10
8.85378e-10
1.60873e-09
2.81039e-09
4.72037e-09
7.62265e-09
1.18345e-08
1.76647e-08
2.53494e-08
3.49726e-08
4.63858e-08
5.91471e-08
7.25052e-08
8.54453e-08
9.68023e-08
1.05428e-07
1.10383e-07
1.11099e-07
1.07493e-07
9.99798e-08
8.93918e-08
7.68305e-08
6.3477e-08
5.0413e-08
3.84865e-08
2.82429e-08
1.99224e-08
1.35083e-08
8.80407e-09
5.51552e-09
3.32128e-09
1.92237e-09
1.06949e-09
5.71899e-10
2.93943e-10
1.45212e-10
6.89504e-11
3.14672e-11
1.38027e-11
5.81904e-12
2.35784e-12
9.18231e-13
3.43683e-13
1.23631e-13
4.27348e-14
1.40678e-14
6.67195e-15
0
0
0
0
0
0
0
0
0
0
0
0
0
0
0
0
0
0
0
0
0
0
0
0
0
0
0
0
0
0
0
1.84526e-20
8.40037e-20
3.67827e-19
1.5491e-18
6.27476e-18
2.44446e-17
9.15862e-17
3.3001e-16
1.14357e-15
3.81096e-15
1.22132e-14
3.7639e-14
1.11547e-13
3.1789e-13
8.71149e-13
2.2956e-12
5.8168e-12
1.41738e-11
3.32398e-11
7.55008e-11
1.66394e-10
3.53548e-10
7.22262e-10
1.41864e-09
2.67901e-09
4.86404e-09
8.49053e-09
1.42489e-08
2.29898e-08
3.56607e-08
5.31792e-08
7.62404e-08
1.05079e-07
1.3923e-07
1.7735e-07
2.17172e-07
2.55653e-07
2.89312e-07
3.14737e-07
3.29148e-07
3.30897e-07
3.19778e-07
2.97068e-07
2.65284e-07
2.27725e-07
1.8791e-07
1.49048e-07
1.13641e-07
8.32868e-08
5.86736e-08
3.97312e-08
2.58607e-08
1.61794e-08
9.72968e-09
5.62396e-09
3.12457e-09
1.66855e-09
8.56417e-10
4.22498e-10
2.00334e-10
9.12997e-11
3.99914e-11
1.68361e-11
6.81229e-12
2.6492e-12
9.90158e-13
3.55678e-13
1.22774e-13
4.04066e-14
1.92084e-14
0
0
0
0
0
0
0
0
0
0
0
0
0
0
0
0
0
0
0
0
0
0
0
0
0
0
0
0
0
0
1.09775e-20
5.20927e-20
2.3775e-19
1.04357e-18
4.40526e-18
1.78838e-17
6.98198e-17
2.62131e-16
9.46393e-16
3.28571e-15
1.09695e-14
3.52154e-14
1.08709e-13
3.22681e-13
9.20988e-13
2.52756e-12
6.66975e-12
1.69229e-11
4.12874e-11
9.6924e-11
2.20234e-10
4.8522e-10
1.03044e-09
2.10389e-09
4.12986e-09
7.79391e-09
1.41409e-08
2.46661e-08
4.13634e-08
6.66842e-08
1.03351e-07
1.5399e-07
2.20572e-07
3.03726e-07
4.02057e-07
5.11637e-07
6.25896e-07
7.36046e-07
8.32084e-07
9.04244e-07
9.4462e-07
9.4859e-07
9.15686e-07
8.49686e-07
7.57897e-07
6.4983e-07
5.35578e-07
4.24304e-07
3.23116e-07
2.36518e-07
1.66414e-07
1.12547e-07
7.31635e-08
4.57156e-08
2.74563e-08
1.58498e-08
8.79439e-09
4.69013e-09
2.40413e-09
1.18446e-09
5.60883e-10
2.55274e-10
1.11666e-10
4.69471e-11
1.89701e-11
7.36718e-12
2.74978e-12
9.86405e-13
3.40037e-13
1.11889e-13
5.33156e-14
0
0
0
0
0
0
0
0
0
0
0
0
0
0
0
0
0
0
0
0
0
0
0
0
0
0
0
0
0
0
2.97047e-20
1.41335e-19
6.4669e-19
2.84548e-18
1.20398e-17
4.89872e-17
1.91661e-16
7.21053e-16
2.60841e-15
9.07309e-15
3.03457e-14
9.75879e-14
3.0175e-13
8.9711e-13
2.5644e-12
7.04796e-12
1.86241e-11
4.73168e-11
1.15585e-10
2.71621e-10
6.17441e-10
1.36003e-09
2.88693e-09
5.89142e-09
1.15584e-08
2.18004e-08
3.95292e-08
6.89055e-08
1.1547e-07
1.86019e-07
2.88084e-07
4.28895e-07
6.1383e-07
8.44519e-07
1.11694e-06
1.42007e-06
1.73558e-06
2.03907e-06
2.30286e-06
2.50007e-06
2.60903e-06
2.61726e-06
2.52379e-06
2.33936e-06
2.08436e-06
1.78516e-06
1.46964e-06
1.16297e-06
8.846e-07
6.46761e-07
4.54524e-07
3.07031e-07
1.9935e-07
1.24411e-07
7.46282e-08
4.30276e-08
2.38445e-08
1.27006e-08
6.50202e-09
3.19934e-09
1.51306e-09
6.87753e-10
3.00459e-10
1.26157e-10
5.09107e-11
1.97457e-11
7.36037e-12
2.63686e-12
9.07818e-13
2.98664e-13
1.42649e-13
0
0
0
0
0
0
0
0
0
0
0
0
0
0
0
0
0
0
0
0
0
0
0
0
0
0
0
0
0
1.55707e-20
7.72509e-20
3.68536e-19
1.69057e-18
7.45679e-18
3.16252e-17
1.28964e-16
5.05653e-16
1.90625e-15
6.90949e-15
2.40793e-14
8.0681e-14
2.59909e-13
8.04993e-13
2.39705e-12
6.8624e-12
1.88878e-11
4.99798e-11
1.27148e-10
3.10982e-10
7.31569e-10
1.66374e-09
3.66408e-09
7.77475e-09
1.58593e-08
3.10998e-08
5.86274e-08
1.06246e-07
1.85093e-07
3.09977e-07
4.99034e-07
7.72303e-07
1.14895e-06
1.64312e-06
2.25884e-06
2.98505e-06
3.79195e-06
4.6304e-06
5.43521e-06
6.13272e-06
6.65161e-06
6.93483e-06
6.94987e-06
6.69497e-06
6.19937e-06
5.51788e-06
4.72085e-06
3.88229e-06
3.06884e-06
2.33171e-06
1.7029e-06
1.1954e-06
8.06572e-07
5.23093e-07
3.26074e-07
1.95367e-07
1.12508e-07
6.22741e-08
3.313e-08
1.69404e-08
8.32545e-09
3.93254e-09
1.78532e-09
7.78993e-10
3.2668e-10
1.31668e-10
5.10035e-11
1.89882e-11
6.79399e-12
2.33615e-12
7.68403e-13
3.6778e-13
0
0
0
0
0
0
0
0
0
0
0
0
0
0
0
0
0
0
0
0
0
0
0
0
0
0
0
0
0
3.88099e-20
1.93082e-19
9.23579e-19
4.2475e-18
1.87808e-17
7.98386e-17
3.26305e-16
1.28216e-15
4.84354e-15
1.75907e-14
6.14189e-14
2.06164e-13
6.65294e-13
2.06396e-12
6.15565e-12
1.76493e-11
4.86476e-11
1.28906e-10
3.28367e-10
8.0413e-10
1.89369e-09
4.30882e-09
9.48833e-09
2.01267e-08
4.10405e-08
8.04467e-08
1.51585e-07
2.7457e-07
4.7808e-07
8.00192e-07
1.28746e-06
1.99119e-06
2.9603e-06
4.23056e-06
5.81163e-06
7.67421e-06
9.74101e-06
1.18852e-05
1.39393e-05
1.57146e-05
1.70292e-05
1.77382e-05
1.77602e-05
1.70927e-05
1.58121e-05
1.40601e-05
1.20172e-05
9.87258e-06
7.79596e-06
5.91722e-06
4.3169e-06
3.02713e-06
2.04029e-06
1.32176e-06
8.2302e-07
4.92564e-07
2.83339e-07
1.56653e-07
8.3245e-08
4.25168e-08
2.0871e-08
9.84704e-09
4.46521e-09
1.94604e-09
8.15134e-10
3.28151e-10
1.26964e-10
4.72119e-11
1.68724e-11
5.7949e-12
1.90513e-12
9.12912e-13
0
0
0
0
0
0
0
0
0
0
0
0
0
0
0
0
0
0
0
0
0
0
0
0
0
0
0
0
1.79151e-20
9.29691e-20
4.63817e-19
2.22452e-18
1.02566e-17
4.54621e-17
1.93716e-16
7.93508e-16
3.12466e-15
1.18282e-14
4.30423e-14
1.50568e-13
5.06321e-13
1.63673e-12
5.08604e-12
1.51928e-11
4.3626e-11
1.20421e-10
3.1953e-10
8.1502e-10
1.99837e-09
4.71116e-09
1.07254e-08
2.36168e-08
5.00834e-08
1.02095e-07
2.00054e-07
3.76814e-07
6.82241e-07
1.18736e-06
1.98634e-06
3.19416e-06
4.93727e-06
7.33574e-06
1.04768e-05
1.43825e-05
1.89787e-05
2.40724e-05
2.93491e-05
3.43945e-05
3.87439e-05
4.19502e-05
4.36597e-05
4.3676e-05
4.19969e-05
3.88154e-05
3.44826e-05
2.94446e-05
2.41667e-05
1.90649e-05
1.44562e-05
1.0536e-05
7.38064e-06
4.96948e-06
3.21605e-06
2.00045e-06
1.19598e-06
6.8724e-07
3.79559e-07
2.01481e-07
1.02794e-07
5.04062e-08
2.37561e-08
1.07607e-08
4.68466e-09
1.96013e-09
7.88239e-10
3.04646e-10
1.1316e-10
4.03973e-11
1.38598e-11
4.55044e-12
2.17661e-12
0
0
0
0
0
0
0
0
0
0
0
0
0
0
0
0
0
0
0
0
0
0
0
0
0
0
0
0
4.11263e-20
2.14044e-19
1.07083e-18
5.14959e-18
2.38041e-17
1.0577e-16
4.51748e-16
1.85463e-15
7.31886e-15
2.77621e-14
1.01224e-13
3.54764e-13
1.19513e-12
3.87002e-12
1.20457e-11
3.60389e-11
1.03641e-10
2.86492e-10
7.6123e-10
1.94419e-09
4.77294e-09
1.12645e-08
2.56595e-08
5.65016e-08
1.19798e-07
2.44149e-07
4.78274e-07
9.00562e-07
1.62991e-06
2.8355e-06
4.74142e-06
7.62079e-06
1.17735e-05
1.74832e-05
2.49545e-05
3.42363e-05
4.51479e-05
5.72265e-05
6.97215e-05
8.16479e-05
9.19035e-05
9.9432e-05
0.000103402
0.000103356
9.92995e-05
9.16987e-05
8.13922e-05
6.94391e-05
5.69412e-05
4.48795e-05
3.39992e-05
2.47563e-05
1.7326e-05
1.16548e-05
7.53535e-06
4.68266e-06
2.79687e-06
1.6056e-06
8.8591e-07
4.69813e-07
2.39466e-07
1.17312e-07
5.52353e-08
2.49959e-08
1.08717e-08
4.5446e-09
1.82585e-09
7.05025e-10
2.61644e-10
9.33214e-11
3.19895e-11
1.04645e-11
4.9575e-12
0
0
0
0
0
0
0
0
0
0
0
0
0
0
0
0
0
0
0
0
0
0
0
0
0
0
0
1.84505e-20
1.01428e-19
5.2683e-19
2.35543e-18
1.13971e-17
5.31019e-17
2.36512e-16
1.01253e-15
4.16627e-15
1.64766e-14
6.26281e-14
2.288e-13
8.03391e-13
2.71134e-12
8.79484e-12
2.74195e-11
8.21637e-11
2.36641e-10
6.55077e-10
1.74296e-09
4.45734e-09
1.09562e-08
2.58859e-08
5.90031e-08
1.29937e-07
2.75475e-07
5.61334e-07
1.09939e-06
2.06955e-06
3.74448e-06
6.5118e-06
1.08844e-05
1.74865e-05
2.70021e-05
4.00764e-05
5.71711e-05
7.83901e-05
0.00010331
0.000130865
0.000159332
0.000186458
0.000209729
0.000226744
0.00023562
0.000235335
0.000225923
0.000208466
0.000184887
0.000157608
0.000129135
0.000101698
7.69795e-05
5.6006e-05
3.91642e-05
2.63232e-05
1.70053e-05
1.05589e-05
6.30157e-06
3.61467e-06
1.99287e-06
1.05603e-06
5.37855e-07
2.63293e-07
1.23879e-07
5.60198e-08
2.43483e-08
1.01713e-08
4.08382e-09
1.57593e-09
5.84502e-10
2.08359e-10
7.13856e-11
2.31488e-11
1.06698e-11
0
0
0
0
0
0
0
0
0
0
0
0
0
0
0
0
0
0
0
0
0
0
0
0
0
0
0
0.00305501
0.00980143
0.0154987
0.0176608
0.0160324
0.0104904
0.00339351
2.70258e-05
1.08542e-07
2.91043e-10
7.21813e-13
5.02655e-13
1.76391e-12
5.96011e-12
1.9355e-11
6.04086e-11
1.81205e-10
5.22409e-10
1.44751e-09
3.85485e-09
9.8666e-09
2.4272e-08
5.7389e-08
1.30851e-07
2.88106e-07
6.10575e-07
1.24365e-06
2.43463e-06
4.58082e-06
8.28387e-06
1.43981e-05
2.40524e-05
3.86186e-05
5.95965e-05
8.83961e-05
0.000126019
0.000172675
0.000227413
0.000287869
0.000350244
0.000409583
0.000460375
0.00049737
0.000516472
0.000515482
0.000494518
0.000455986
0.000404131
0.000344267
0.000281885
0.000221846
0.000167816
0.000122016
8.5272e-05
5.72793e-05
3.69821e-05
2.29503e-05
1.36895e-05
7.84854e-06
4.32506e-06
2.29085e-06
1.16628e-06
5.70704e-07
2.68422e-07
1.21346e-07
5.27273e-08
2.20214e-08
8.84e-09
3.41083e-09