# vtk DataFile Version 2.0
Structured output generated by Nextsim
ASCII
DATASET STRUCTURED_POINTS
DIMENSIONS 101 101 1
ORIGIN 0 0 0
SPACING 0.01 0.01 0.01
POINT_DATA 10201
SCALARS interpolate DOUBLE 1
LOOKUP_TABLE default
0
0
0
0
0
0
0
0
0
0
0
0
0
0
0
0
0
0
0
0
0
0
0
0
0
0
0
0
0
0
0
0
0
0
0
0
0
0
0
0
0
0
0
0
0
0
0
0
0
0
0
0
0
0
0
0
0
0
0
0
0
0
0
0
0
0
0
0
0
0
0
0
0
0
0
0
0
0
0
0
0
0
0
0
0
0
0
0
0
0
0
0
0
0
0
0
0
0
0
0
0
0
0
0
0
0
0
0
0
0
0
0
0
0
0
0
0
0
0
0
0
0
0
0
0
0
0
0
0
0
0
0
0
0
0
0
0
0
0
0
0
0
0
0
0
0
0
0
0
0
0
0
0
0
0
0
0
0
0
0
0
0
0
0
0
0
0
0
0
0
0
0
0
0
0
0
0
0
0
0
0
0
0
0
0
0
0
0
0
0
0
0
0
0
0
0
0
0
0
0
0
0
0
0
0
0
0
0
0
0
0
0
0
0
0
0
0
0
0
0
0
0
0
0
0
0
0
0
0
0
0
0
0
0
0
0
0
0
0
0
0
0
0
0
0
0
0
0
0
0
0
0
0
0
0
0
0
0
0
0
0
0
0
0
0
0
0
0
0
0
0
0
0
0
0
0
0
0
0
0
0
0
0
0
0
0
0
0
0
0
0
0
0
0
0
0
0
0
0
0
0
0
0
0
0
0
0
0
0
0
0
0
0
0
0
0
0
0
0
0
0
0
0
0
0
0
0
0
0
0
0
0
0
0
0
0
0
0
0
0
0
0
0
0
0
0
0
0
0
0
0
0
0
0
0
0
0
0
0
0
0
0
0
0
0
0
0
0
0
0
0
0
0
0
0
0
0
0
0
0
0
0
0
0
0
0
0
0
0
0
0
0
0
0
0
0
0
0
0
0
0
0
0
0
0
0
0
0
0
0
0
0
0
0
0
0
0
0
0
0
0
0
0
0
0
0
0
0
0
0
0
0
0
0
0
0
0
0
0
0
0
0
0
0
0
0
0
0
0
0
0
0
0
0
0
0
0
0
0
0
0
0
0
0
0
0
0
0
1.10818e-20
2.58863e-20
4.78592e-20
5.92051e-20
3.4404e-20
1.0162e-20
0
0
0
0
0
0
0
0
0
0
0
0
0
0
0
0
0
0
0
0
0
0
0
0
0
0
0
0
0
0
0
0
0
0
0
0
0
0
0
0
0
0
0
0
0
0
0
0
0
0
0
0
0
0
0
0
0
0
0
0
0
0
0
0
0
0
0
0
0
0
0
0
0
0
0
0
0
0
0
0
0
0
0
0
0
0
0
0
0
0
0
0
1.53701e-20
5.67878e-20
1.66668e-19
4.2748e-19
9.52969e-19
1.69716e-18
2.04161e-18
1.16584e-18
3.34729e-19
1.88887e-19
5.21742e-20
2.63337e-20
0
0
0
0
0
0
0
0
0
0
0
0
0
0
0
0
0
0
0
0
0
0
0
0
0
0
0
0
0
0
0
0
0
0
0
0
0
0
0
0
0
0
0
0
0
0
0
0
0
0
0
0
0
0
0
0
0
0
0
0
0
0
0
0
0
0
0
0
0
0
0
0
0
0
0
0
0
0
0
0
0
0
0
0
0
0
0
2.37453e-20
1.41059e-19
6.52661e-19
2.30337e-18
6.38386e-18
1.54738e-17
3.28775e-17
5.63443e-17
6.5874e-17
3.6975e-17
1.03532e-17
5.75612e-18
1.55883e-18
7.78247e-19
5.11699e-20
0
0
0
0
0
0
0
0
0
0
0
0
0
0
0
0
0
0
0
0
0
0
0
0
0
0
0
0
0
0
0
0
0
0
0
0
0
0
0
0
0
0
0
0
0
0
0
0
0
0
0
0
0
0
0
0
0
0
0
0
0
0
0
0
0
0
0
0
0
0
0
0
0
0
0
0
0
0
0
0
0
0
0
0
1.616e-20
1.40769e-19
1.01076e-18
5.81483e-18
2.59376e-17
8.74679e-17
2.28813e-16
5.23427e-16
1.05863e-15
1.74406e-15
1.9806e-15
1.0931e-15
2.99611e-16
1.6417e-16
4.37284e-17
2.15946e-17
1.44298e-18
0
0
0
0
0
0
0
0
0
0
0
0
0
0
0
0
0
0
0
0
0
0
0
0
0
0
0
0
0
0
0
0
0
0
0
0
0
0
0
0
0
0
0
0
0
0
0
0
0
0
0
0
0
0
0
0
0
0
0
0
0
0
0
0
0
0
0
0
0
0
0
0
0
0
0
0
0
0
0
0
0
0
0
6.79638e-20
6.81603e-19
5.76053e-18
4.00973e-17
2.23242e-16
9.59934e-16
3.09425e-15
7.63744e-15
1.64674e-14
3.16629e-14
5.00954e-14
5.52285e-14
2.9983e-14
8.07909e-15
4.36459e-15
1.1476e-15
5.60602e-16
3.81939e-17
1.10468e-19
0
0
0
0
0
0
0
0
0
0
0
0
0
0
0
0
0
0
0
0
0
0
0
0
0
0
0
0
0
0
0
0
0
0
0
0
0
0
0
0
0
0
0
0
0
0
0
0
0
0
0
0
0
0
0
0
0
0
0
0
0
0
0
0
0
0
0
0
0
0
0
0
0
0
0
0
0
0
0
0
1.86594e-20
2.43053e-19
2.75323e-18
2.67456e-17
2.18884e-16
1.47473e-15
7.93811e-15
3.2895e-14
1.01387e-13
2.36069e-13
4.79169e-13
8.74829e-13
1.32789e-12
1.42046e-12
7.58964e-13
2.02041e-13
1.07665e-13
2.8061e-14
1.3561e-14
9.45476e-16
2.98352e-18
0
0
0
0
0
0
0
0
0
0
0
0
0
0
0
0
0
0
0
0
0
0
0
0
0
0
0
0
0
0
0
0
0
0
0
0
0
0
0
0
0
0
0
0
0
0
0
0
0
0
0
0
0
0
0
0
0
0
0
0
0
0
0
0
0
0
0
0
0
0
0
0
0
0
0
0
0
0
0
5.24141e-20
7.51174e-19
9.45965e-18
1.03534e-16
9.71512e-16
7.68008e-15
4.99842e-14
2.59763e-13
1.03681e-12
3.05635e-12
6.71248e-12
1.28116e-11
2.21838e-11
3.22729e-11
3.34803e-11
1.76188e-11
4.66024e-12
2.45117e-12
6.36286e-13
3.04264e-13
2.17997e-14
7.56338e-17
2.30238e-19
0
0
0
0
0
0
0
0
0
0
0
0
0
0
0
0
0
0
0
0
0
0
0
0
0
0
0
0
0
0
0
0
0
0
0
0
0
0
0
0
0
0
0
0
0
0
0
0
0
0
0
0
0
0
0
0
0
0
0
0
0
0
0
0
0
0
0
0
0
0
0
0
0
0
0
0
0
1.30473e-19
2.03627e-18
2.81413e-17
3.41369e-16
3.59668e-15
3.24847e-14
2.47263e-13
1.55038e-12
7.76411e-12
2.98208e-11
8.40904e-11
1.74203e-10
3.12306e-10
5.123e-10
7.13629e-10
7.17662e-10
3.72327e-10
9.85104e-11
5.11843e-11
1.33065e-11
6.29797e-12
4.65957e-13
1.79323e-15
5.96412e-18
0
0
0
0
0
0
0
0
0
0
0
0
0
0
0
0
0
0
0
0
0
0
0
0
0
0
0
0
0
0
0
0
0
0
0
0
0
0
0
0
0
0
0
0
0
0
0
0
0
0
0
0
0
0
0
0
0
0
0
0
0
0
0
0
0
0
0
0
0
0
0
0
0
0
0
1.54964e-20
2.91123e-19
4.90803e-18
7.36796e-17
9.77696e-16
1.13721e-14
1.14802e-13
9.93477e-13
7.25086e-12
4.36469e-11
2.10079e-10
7.75353e-10
2.09138e-09
4.08716e-09
6.87579e-09
1.06738e-08
1.42239e-08
1.38615e-08
7.09933e-09
1.89387e-09
9.73139e-10
2.55008e-10
1.19517e-10
9.18264e-12
3.96017e-14
1.45008e-16
0
0
0
0
0
0
0
0
0
0
0
0
0
0
0
0
0
0
0
0
0
0
0
0
0
0
0
0
0
0
0
0
0
0
0
0
0
0
0
0
0
0
0
0
0
0
0
0
0
0
0
0
0
0
0
0
0
0
0
0
0
0
0
0
0
0
0
0
0
0
0
0
0
0
3.00463e-20
5.88853e-19
1.06467e-17
1.72291e-16
2.47622e-15
3.1385e-14
3.48054e-13
3.3466e-12
2.75854e-11
1.91994e-10
1.10436e-09
5.09053e-09
1.80153e-08
4.64669e-08
8.56825e-08
1.35141e-07
1.98342e-07
2.5264e-07
2.38533e-07
1.2083e-07
3.28116e-08
1.66984e-08
4.44451e-09
2.06407e-09
1.65782e-10
8.10784e-13
3.29726e-15
0
0
0
0
0
0
0
0
0
0
0
0
0
0
0
0
0
0
0
0
0
0
0
0
0
0
0
0
0
0
0
0
0
0
0
0
0
0
0
0
0
0
0
0
0
0
0
0
0
0
0
0
0
0
0
0
0
0
0
0
0
0
0
0
0
0
0
0
0
0
0
0
0
5.59117e-20
1.11528e-18
2.10143e-17
3.6417e-16
5.63018e-15
7.70534e-14
9.2709e-13
9.73486e-12
8.84887e-11
6.89471e-10
4.54322e-09
2.48154e-08
1.09008e-07
3.68743e-07
9.08785e-07
1.5815e-06
2.33682e-06
3.23975e-06
3.94161e-06
3.60566e-06
1.81138e-06
5.06568e-07
2.55866e-07
6.98073e-08
3.21548e-08
2.72122e-09
1.53054e-11
6.98302e-14
0
0
0
0
0
0
0
0
0
0
0
0
0
0
0
0
0
0
0
0
0
0
0
0
0
0
0
0
0
0
0
0
0
0
0
0
0
0
0
0
0
0
0
0
0
0
0
0
0
0
0
0
0
0
0
0
0
0
0
0
0
0
0
0
0
0
0
0
0
0
0
0
9.99829e-20
2.02985e-18
3.8907e-17
7.02088e-16
1.16103e-14
1.70626e-13
2.21057e-12
2.50742e-11
2.47286e-10
2.10554e-09
1.53559e-08
9.48817e-08
4.87945e-07
2.02863e-06
6.52822e-06
1.53503e-05
2.52162e-05
3.48848e-05
4.56541e-05
5.30247e-05
4.7014e-05
2.35175e-05
6.8721e-06
3.45515e-06
9.77073e-07
4.47018e-07
4.02437e-08
2.64703e-10
1.37092e-12
0
0
0
0
0
0
0
0
0
0
0
0
0
0
0
0
0
0
0
0
0
0
0
0
0
0
0
0
0
0
0
0
0
0
0
0
0
0
0
0
0
0
0
0
0
0
0
0
0
0
0
0
0
0
0
0
0
0
0
0
0
0
0
0
0
0
0
0
0
0
0
1.71035e-19
3.53752e-18
6.90309e-17
1.26727e-15
2.18155e-14
3.42715e-13
4.7636e-12
5.80801e-11
6.1662e-10
5.66073e-09
4.46586e-08
3.01075e-07
1.72203e-06
8.24008e-06
3.21059e-05
9.75794e-05
0.000218315
0.000338569
0.000438377
0.000541316
0.000600044
0.000516209
0.000258703
8.04607e-05
4.04413e-05
1.20182e-05
5.47248e-06
5.30295e-07
4.16264e-09
2.48131e-11
0
0
0
0
0
0
0
0
0
0
0
0
0
0
0
0
0
0
0
0
0
0
0
0
0
0
0
0
0
0
0
0
0
0
0
0
0
0
0
0
0
0
0
0
0
0
0
0
0
0
0
0
0
0
0
0
0
0
0
0
0
0
0
0
0
0
0
0
0
1.23608e-20
2.7609e-19
5.82933e-18
1.16037e-16
2.17118e-15
3.80592e-14
6.22638e-13
9.25243e-12
1.21077e-10
1.38189e-09
1.36398e-08
1.15512e-07
8.34156e-07
5.11891e-06
2.66366e-05
0.000116633
0.000419786
0.00119121
0.00252319
0.00369354
0.00447612
0.00521498
0.00551901
0.00461727
0.00234142
0.000794017
0.000401561
0.00012761
5.80123e-05
6.14081e-06
5.89844e-08
4.11401e-10
0
0
0
0
0
0
0
0
0
0
0
0
0
0
0
0
0
0
0
0
0
0
0
0
0
0
0
0
0
0
0
0
0
0
0
0
0
0
0
0
0
0
0
0
0
0
0
0
0
0
0
0
0
0
0
0
0
0
0
0
0
0
0
0
0
0
0
0
1.79285e-20
4.10201e-19
8.86643e-18
1.80556e-16
3.45346e-15
6.18253e-14
1.0319e-12
1.59848e-11
2.23787e-10
2.74625e-09
2.92159e-08
2.66645e-07
2.06653e-06
1.34923e-05
7.401e-05
0.000342356
0.00133899
0.00435522
0.0113184
0.0224822
0.0310367
0.0352333
0.0387626
0.0392239
0.0320661
0.0167366
0.00639334
0.00328697
0.00114251
0.00052103
6.14043e-05
7.44836e-07
6.20096e-09
0
0
0
0
0
0
0
0
0
0
0
0
0
0
0
0
0
0
0
0
0
0
0
0
0
0
0
0
0
0
0
0
0
0
0
0
0
0
0
0
0
0
0
0
0
0
0
0
0
0
0
0
0
0
0
0
0
0
0
0
0
0
0
0
0
0
0
2.29798e-20
5.40211e-19
1.19915e-17
2.50646e-16
4.91758e-15
9.02386e-14
1.54247e-12
2.44451e-11
3.57246e-10
4.69379e-09
5.38382e-08
5.32226e-07
4.47492e-06
3.15514e-05
0.000184215
0.000885528
0.00353264
0.0119062
0.0337991
0.0776947
0.141822
0.184127
0.196343
0.204574
0.198809
0.160551
0.089057
0.040089
0.0213199
0.00835245
0.00385095
0.000518186
8.26748e-06
8.4195e-08
0
0
0
0
0
0
0
0
0
0
0
0
0
0
0
0
0
0
0
0
0
0
0
0
0
0
0
0
0
0
0
0
0
0
0
0
0
0
0
0
0
0
0
0
0
0
0
0
0
0
0
0
0
0
0
0
0
0
0
0
0
0
0
0
0
0
2.46609e-20
5.9742e-19
1.36618e-17
2.94074e-16
5.93917e-15
1.12132e-13
1.97089e-12
3.20949e-11
4.81543e-10
6.61325e-09
8.12204e-08
8.68106e-07
7.95624e-06
6.14942e-05
0.00039308
0.00203572
0.00841175
0.027854
0.0766026
0.179155
0.340138
0.542296
0.656173
0.663316
0.660874
0.625169
0.513051
0.323199
0.182372
0.103561
0.0476241
0.0224998
0.00357849
7.92684e-05
1.01832e-06
0
0
0
0
0
0
0
0
0
0
0
0
0
0
0
0
0
0
0
0
0
0
0
0
0
0
0
0
0
0
0
0
0
0
0
0
0
0
0
0
0
0
0
0
0
0
0
0
0
0
0
0
0
0
0
0
0
0
0
0
0
0
0
0
0
2.04228e-20
5.11272e-19
1.20805e-17
2.68634e-16
5.60367e-15
1.09249e-13
1.98227e-12
3.33123e-11
5.1557e-10
7.30004e-09
9.38161e-08
1.07242e-06
1.06469e-05
9.0263e-05
0.000640238
0.00370255
0.0169187
0.0591089
0.155398
0.321123
0.563048
0.772662
0.920636
0.999701
0.998105
0.990106
0.959052
0.872059
0.713568
0.537807
0.347249
0.19767
0.0981498
0.0193761
0.000641758
1.08191e-05
4.20423e-20
3.62853e-20
3.00907e-20
2.39876e-20
1.83815e-20
1.35394e-20
0
0
0
0
0
0
0
0
0
0
0
0
0
0
0
0
0
0
0
0
0
0
0
0
0
0
0
0
0
0
0
0
0
0
0
0
0
0
0
0
0
0
0
0
0
0
0
0
0
0
0
0
0
0
0
0
0
0
1.13169e-20
2.93605e-19
7.18966e-18
1.65697e-16
3.58241e-15
7.23924e-14
1.36158e-12
2.37206e-11
3.80623e-10
5.58828e-09
7.44822e-08
8.92648e-07
9.46305e-06
8.69963e-05
0.000680311
0.0044151
0.0230134
0.0922157
0.268472
0.536927
0.755196
0.913726
1
1
0.999996
0.999969
0.999758
0.998411
0.99143
0.963372
0.881827
0.726173
0.536594
0.294968
0.0774428
0.00425551
9.91859e-05
2.44928e-19
2.10626e-19
1.73886e-19
1.37999e-19
1.05277e-19
7.72012e-20
5.44175e-20
3.68692e-20
2.40098e-20
1.5028e-20
0
0
0
0
0
0
0
0
0
0
0
0
0
0
0
0
0
0
0
0
0
0
0
0
0
0
0
0
0
0
0
0
0
0
0
0
0
0
0
0
0
0
0
0
0
0
0
0
0
0
0
0
0
0
8.25693e-20
2.10534e-18
5.05468e-17
1.13909e-15
2.40086e-14
4.71355e-13
8.57972e-12
1.44009e-10
2.21485e-09
3.09802e-08
3.90573e-07
4.38969e-06
4.33792e-05
0.000370331
0.00267024
0.0157808
0.0733577
0.253157
0.599408
0.906167
1
1
1
1
1
1
0.999997
0.999971
0.999763
0.998332
0.990225
0.953902
0.832818
0.560365
0.211161
0.0221597
0.000766408
1.37984e-18
1.18184e-18
9.71456e-19
7.67633e-19
5.83092e-19
4.25757e-19
2.98824e-19
2.01598e-19
1.30726e-19
8.14773e-20
4.88086e-20
2.81016e-20
1.55501e-20
0
0
0
0
0
0
0
0
0
0
0
0
0
0
0
0
0
0
0
0
0
0
0
0
0
0
0
0
0
0
0
0
0
0
0
0
0
0
0
0
0
0
0
0
0
0
0
0
0
0
0
1.4402e-19
3.71207e-18
9.00864e-17
2.05189e-15
4.37033e-14
8.66811e-13
1.5933e-11
2.699e-10
4.18586e-09
5.89719e-08
7.47609e-07
8.42986e-06
8.30511e-05
0.000699079
0.00490281
0.0277073
0.120467
0.377435
0.780396
1
1
1
1
1
1
1
1
0.999995
0.999954
0.99961
0.997192
0.983425
0.922988
0.734832
0.378328
0.0854352
0.00483387
7.50006e-18
6.40908e-18
5.24611e-18
4.12809e-18
3.12263e-18
2.27058e-18
1.58704e-18
1.06626e-18
6.88571e-19
4.27404e-19
2.54988e-19
1.46212e-19
8.05784e-20
4.26794e-20
2.17256e-20
1.06285e-20
0
0
0
0
0
0
0
0
0
0
0
0
0
0
0
0
0
0
0
0
0
0
0
0
0
0
0
0
0
0
0
0
0
0
0
0
0
0
0
0
0
0
0
0
0
0
0
2.06361e-20
5.682e-19
1.4732e-17
3.58535e-16
8.16121e-15
1.73045e-13
3.40178e-12
6.16653e-11
1.02425e-09
1.54717e-08
2.10631e-07
2.55617e-06
2.72783e-05
0.000251509
0.00195768
0.0124754
0.0623796
0.230343
0.576654
0.897946
1
1
1
1
1
1
1
1
0.999998
0.999982
0.999838
0.998774
0.992302
0.961208
0.850344
0.584837
0.226093
0.0237737
3.95745e-17
3.35857e-17
2.738e-17
2.1458e-17
1.61661e-17
1.17077e-17
8.15041e-18
5.45399e-18
3.50806e-18
2.16884e-18
1.2888e-18
7.36089e-19
4.04067e-19
2.1318e-19
1.08094e-19
5.26751e-20
2.46691e-20
1.11029e-20
0
0
0
0
0
0
0
0
0
0
0
0
0
0
0
0
0
0
0
0
0
0
0
0
0
0
0
0
0
0
0
0
0
0
0
0
0
0
0
0
0
0
0
0
0
3.40288e-20
9.48713e-19
2.49061e-17
6.13711e-16
1.41424e-14
3.03511e-13
6.03713e-12
1.1068e-10
1.85797e-09
2.83366e-08
3.88951e-07
4.74941e-06
5.08443e-05
0.000466586
0.00356538
0.0219193
0.103355
0.3488
0.764219
1
1
1
1
1
1
1
1
1
1
0.999997
0.999971
0.999733
0.997926
0.986798
0.934027
0.75686
0.396607
0.085142
2.01249e-16
1.70045e-16
1.38084e-16
1.07795e-16
8.08949e-17
5.83576e-17
4.04685e-17
2.69754e-17
1.72839e-17
1.06445e-17
6.30107e-18
3.58504e-18
1.96046e-18
1.03037e-18
5.20472e-19
2.52673e-19
1.17887e-19
5.28588e-20
2.27773e-20
0
0
0
0
0
0
0
0
0
0
0
0
0
0
0
0
0
0
0
0
0
0
0
0
0
0
0
0
0
0
0
0
0
0
0
0
0
0
0
0
0
0
0
0
1.35279e-19
3.81616e-18
1.01044e-16
2.50218e-15
5.77119e-14
1.23397e-12
2.43257e-11
4.3931e-10
7.21327e-09
1.06709e-07
1.40656e-06
1.62931e-05
0.000162968
0.0013762
0.00951812
0.0516334
0.206193
0.551854
0.889004
1
1
1
1
1
1
1
1
1
1
0.999999
0.999989
0.999891
0.999106
0.993917
0.96682
0.861858
0.58971
0.19996
9.8807e-16
8.3168e-16
6.72812e-16
5.23252e-16
3.91197e-16
2.8115e-16
1.94234e-16
1.28988e-16
8.23374e-17
5.05197e-17
2.97941e-17
1.68887e-17
9.20133e-18
4.81818e-18
2.42485e-18
1.17287e-18
5.45215e-19
2.43575e-19
1.04577e-19
4.31487e-20
1.71088e-20
0
0
0
0
0
0
0
0
0
0
0
0
0
0
0
0
0
0
0
0
0
0
0
0
0
0
0
0
0
0
0
0
0
0
0
0
0
0
0
0
0
0
1.86109e-19
5.29349e-18
1.41326e-16
3.52882e-15
8.20666e-14
1.76916e-12
3.51583e-11
6.39925e-10
1.05856e-08
1.57669e-07
2.09051e-06
2.43225e-05
0.000243786
0.00205666
0.0141469
0.0756767
0.292804
0.729438
1
1
1
1
1
1
1
1
1
1
1
1
0.999998
0.999977
0.999769
0.99803
0.986303
0.925931
0.710463
0.272594
4.6863e-15
3.92885e-15
3.16679e-15
2.45389e-15
1.82793e-15
1.30895e-15
9.01018e-16
5.96187e-16
3.79192e-16
2.31822e-16
1.36225e-16
7.69417e-17
4.17692e-17
2.17938e-17
1.09291e-17
5.26746e-18
2.43992e-18
1.08618e-18
4.64696e-19
1.91061e-19
7.54916e-20
2.86587e-20
1.0419e-20
0
0
0
0
0
0
0
0
0
0
0
0
0
0
0
0
0
0
0
0
0
0
0
0
0
0
0
0
0
0
0
0
0
0
0
0
0
0
0
0
9.7967e-20
2.8682e-18
7.89154e-17
2.03295e-15
4.88333e-14
1.08862e-12
2.23985e-11
4.22614e-10
7.25639e-09
1.12341e-07
1.55049e-06
1.88087e-05
0.000196924
0.00173689
0.0124834
0.0696805
0.280509
0.721752
0.999997
1
1
1
1
1
1
1
1
1
1
1
0.999999
0.999982
0.999812
0.998322
0.987821
0.931391
0.721612
0.279548
2.14537e-14
1.79236e-14
1.43964e-14
1.11164e-14
8.2517e-15
5.8882e-15
4.03897e-15
2.66317e-15
1.68794e-15
1.02833e-15
6.02175e-16
3.38933e-16
1.83358e-16
9.53388e-17
4.7645e-17
2.28841e-17
1.05636e-17
4.68645e-18
1.99813e-18
8.1873e-19
3.22395e-19
1.21978e-19
4.42113e-20
1.48001e-20
0
0
0
0
0
0
0
0
0
0
0
0
0
0
0
0
0
0
0
0
0
0
0
0
0
0
0
0
0
0
0
0
0
0
0
0
0
0
0
4.49338e-20
1.373e-18
3.94985e-17
1.06464e-15
2.67716e-14
6.25041e-13
1.34738e-11
2.66433e-10
4.7956e-09
7.78408e-08
1.12648e-06
1.43278e-05
0.000157258
0.00145351
0.0109397
0.0638583
0.268051
0.713737
0.999915
1
1
1
1
1
1
1
1
1
1
1
0.999999
0.999985
0.999837
0.998488
0.988647
0.934179
0.72687
0.2827
9.48219e-14
7.89541e-14
6.32023e-14
4.86376e-14
3.59816e-14
2.55888e-14
1.74932e-14
1.14955e-14
7.26134e-15
4.40888e-15
2.57307e-15
1.44338e-15
7.78224e-16
4.03289e-16
2.00867e-16
9.61549e-17
4.42384e-17
1.95607e-17
8.31225e-18
3.39465e-18
1.33231e-18
5.02433e-19
1.81571e-19
6.07317e-20
2.76293e-20
0
0
0
0
0
0
0
0
0
0
0
0
0
0
0
0
0
0
0
0
0
0
0
0
0
0
0
0
0
0
0
0
0
0
0
0
0
0
1.98623e-20
6.28417e-19
1.89578e-17
5.36652e-16
1.41771e-14
3.47791e-13
7.87869e-12
1.63737e-10
3.09759e-09
5.28466e-08
8.03784e-07
1.07435e-05
0.000123882
0.00120236
0.00949531
0.0580766
0.254692
0.703297
0.998268
0.999994
1
1
1
1
1
1
1
1
1
1
0.999999
0.999982
0.999806
0.99821
0.98677
0.925664
0.705766
0.268484
4.04572e-13
3.35775e-13
2.67912e-13
2.05501e-13
1.51533e-13
1.07413e-13
7.31911e-14
4.79401e-14
3.01836e-14
1.8267e-14
1.06261e-14
5.9414e-15
3.19301e-15
1.6493e-15
8.18808e-16
3.90695e-16
1.79168e-16
7.89665e-17
3.34486e-17
1.36163e-17
5.3269e-18
2.00247e-18
7.21583e-19
2.4117e-19
1.10047e-19
0
0
0
0
0
0
0
0
0
0
0
0
0
0
0
0
0
0
0
0
0
0
0
0
0
0
0
0
0
0
0
0
0
0
0
0
0
0
0
2.77787e-19
8.69075e-18
2.58463e-16
7.18305e-15
1.854e-13
4.41863e-12
9.65975e-11
1.92188e-09
3.44704e-08
5.50894e-07
7.73099e-06
9.34873e-05
0.000950489
0.0078571
0.0502619
0.230288
0.663132
0.975967
0.999853
0.999999
1
1
1
1
1
1
1
1
1
0.999996
0.99996
0.999598
0.996553
0.976567
0.882984
0.607643
0.204308
1.66607e-12
1.37844e-12
1.0964e-12
8.38358e-13
6.16249e-13
4.35453e-13
2.95784e-13
1.93129e-13
1.21214e-13
7.31273e-14
4.24053e-14
2.36356e-14
1.26623e-14
6.52e-15
3.22676e-15
1.53483e-15
7.01653e-16
3.08281e-16
1.30174e-16
5.28264e-17
2.06023e-17
7.72093e-18
2.77443e-18
9.26632e-19
4.24142e-19
0
0
0
0
0
0
0
0
0
0
0
0
0
0
0
0
0
0
0
0
0
0
0
0
0
0
0
0
0
0
0
0
0
0
0
0
0
0
0
1.07138e-19
2.91156e-18
8.76295e-17
2.50499e-15
6.65758e-14
1.63327e-12
3.67423e-11
7.52228e-10
1.38892e-08
2.28756e-07
3.31534e-06
4.15568e-05
0.000440058
0.00381326
0.025874
0.128777
0.425327
0.816488
0.997463
0.999986
0.999997
0.999998
1
1
1
1
1
0.999999
0.999997
0.999982
0.999868
0.998912
0.9918
0.949769
0.781226
0.401363
0.0771344
6.62135e-12
5.46179e-12
4.33119e-12
3.30183e-12
2.41974e-12
1.70466e-12
1.15439e-12
7.51464e-13
4.70211e-13
2.82813e-13
1.63501e-13
9.08547e-14
4.85258e-14
2.49109e-14
1.2291e-14
5.82861e-15
2.6565e-15
1.16364e-15
4.89874e-16
1.98198e-16
7.70646e-17
2.87944e-17
1.03188e-17
3.44423e-18
1.58157e-18
0
0
0
0
0
0
0
0
0
0
0
0
0
0
0
0
0
0
0
0
0
0
0
0
0
0
0
0
0
0
0
0
0
0
0
0
0
0
2.45594e-20
8.90597e-20
4.89327e-19
7.34463e-18
1.78932e-16
4.44781e-15
1.03839e-13
2.25689e-12
4.57382e-11
8.67386e-10
1.54272e-08
2.56467e-07
3.93214e-06
5.32088e-05
0.00060597
0.00560344
0.0399891
0.203178
0.638409
0.96993
0.999728
0.999939
0.999965
0.999992
0.999995
0.999999
0.999998
0.999997
0.999993
0.999972
0.999868
0.999398
0.996642
0.980813
0.90026
0.636474
0.219893
2.96792e-11
2.53919e-11
2.08848e-11
1.65137e-11
1.25525e-11
9.17235e-12
6.44292e-12
4.35042e-12
2.82368e-12
1.76169e-12
1.05648e-12
6.08988e-13
3.37413e-13
1.79685e-13
9.19714e-14
4.52458e-14
2.13934e-14
9.72194e-15
4.24609e-15
1.78231e-15
7.18997e-16
2.7875e-16
1.03851e-16
3.71176e-17
1.23822e-17
5.70467e-18
0
0
0
0
0
0
0
0
0
0
0
0
0
0
0
0
0
0
0
0
0
0
0
0
0
0
0
0
0
0
0
0
0
0
0
0
0
2.66989e-20
9.35348e-20
3.1605e-19
1.04441e-18
3.8451e-18
2.96727e-17
6.26529e-16
1.70562e-14
4.53077e-13
1.12399e-11
2.5649e-10
5.31313e-09
9.85098e-08
1.6092e-06
2.27113e-05
0.00027024
0.00262589
0.0199095
0.109969
0.396869
0.800787
0.995855
0.999008
0.999441
0.999867
0.999924
0.999977
0.999968
0.999953
0.999915
0.999733
0.99894
0.996491
0.986764
0.9507
0.802585
0.4252
0.0838921
1.10114e-10
9.3948e-11
7.70581e-11
6.07611e-11
4.60575e-11
3.3561e-11
2.35082e-11
1.58287e-11
1.02449e-11
6.37374e-12
3.81155e-12
2.19088e-12
1.21044e-12
6.4278e-13
3.28075e-13
1.60941e-13
7.58818e-14
3.43858e-14
1.49756e-14
6.26827e-15
2.52152e-15
9.74818e-16
3.62157e-16
1.29107e-16
4.3048e-17
1.99006e-17
0
0
0
0
0
0
0
0
0
0
0
0
0
0
0
0
0
0
0
0
0
0
0
0
0
0
0
0
0
0
0
0
0
0
0
0
2.69177e-20
9.8231e-20
3.45216e-19
1.16827e-18
3.80774e-18
1.19772e-17
3.71275e-17
1.35363e-16
1.12115e-15
2.18851e-14
5.07752e-13
1.14764e-11
2.48226e-10
5.14611e-09
1.0151e-07
1.8152e-06
2.79957e-05
0.000362619
0.00380831
0.0307785
0.175941
0.610655
0.955586
0.987649
0.993175
0.998216
0.99899
0.999688
0.999588
0.999453
0.999143
0.997788
0.992412
0.979919
0.943405
0.866153
0.645226
0.236641
4.45208e-10
3.94068e-10
3.35326e-10
2.74312e-10
2.15722e-10
1.63082e-10
1.18515e-10
8.27914e-11
5.55952e-11
3.58857e-11
2.22653e-11
1.32786e-11
7.61181e-12
4.19397e-12
2.22105e-12
1.13053e-12
5.53078e-13
2.60056e-13
1.17522e-13
5.10429e-14
2.13064e-14
8.54744e-15
3.2954e-15
1.22096e-15
4.34173e-16
1.44704e-16
6.71302e-17
0
0
0
0
0
0
0
0
0
0
0
0
0
0
0
0
0
0
0
0
0
0
0
0
0
0
0
0
0
0
0
0
0
0
0
2.49389e-20
9.48368e-20
3.47279e-19
1.22448e-18
4.15695e-18
1.35868e-17
4.27537e-17
1.29578e-16
3.80486e-16
1.15865e-15
6.08059e-15
1.06234e-13
2.84355e-12
7.42682e-11
1.76766e-09
3.7617e-08
7.03599e-07
1.13422e-05
0.000153824
0.00169793
0.0145374
0.0896082
0.351168
0.717007
0.892956
0.940874
0.981622
0.989684
0.99652
0.995723
0.994737
0.992786
0.984992
0.956168
0.904821
0.78742
0.63205
0.373819
0.0912421
1.54054e-09
1.36015e-09
1.15448e-09
9.42014e-10
7.38916e-10
5.57173e-10
4.03865e-10
2.814e-10
1.88473e-10
1.21339e-10
7.50883e-11
4.46641e-11
2.5536e-11
1.40329e-11
7.41201e-12
3.76281e-12
1.83599e-12
8.61001e-13
3.88067e-13
1.68102e-13
6.99839e-14
2.80011e-14
1.07671e-14
3.97873e-15
1.4114e-15
4.70228e-16
2.18934e-16
0
0
0
0
0
0
0
0
0
0
0
0
0
0
0
0
0
0
0
0
0
0
0
0
0
0
0
0
0
0
0
0
0
0
2.12245e-20
8.41249e-20
3.21056e-19
1.17972e-18
4.17343e-18
1.42134e-17
4.65981e-17
1.47055e-16
4.467e-16
1.30611e-15
3.67846e-15
1.00555e-14
2.87263e-14
1.34941e-13
1.81785e-12
3.92228e-11
9.28805e-10
2.11819e-08
4.24663e-07
7.31919e-06
0.000105725
0.00123525
0.0110718
0.0698923
0.266429
0.464533
0.687058
0.867426
0.924555
0.970137
0.96576
0.960797
0.952213
0.920922
0.811994
0.669041
0.438286
0.229979
0.0964966
5.61029e-09
5.14012e-09
4.52735e-09
3.83345e-09
3.12035e-09
2.44161e-09
1.83655e-09
1.32792e-09
9.22956e-10
6.16624e-10
3.95989e-10
2.44435e-10
1.45029e-10
8.27088e-11
4.53362e-11
2.38853e-11
1.20949e-11
5.88647e-12
2.75347e-12
1.23787e-12
5.34849e-13
2.22098e-13
8.86362e-14
3.39956e-14
1.25303e-14
4.43445e-15
1.47695e-15
6.9021e-16
0
0
0
0
0
0
0
0
0
0
0
0
0
0
0
0
0
0
0
0
0
0
0
0
0
0
0
0
0
0
0
0
0
1.65861e-20
6.85367e-20
2.72669e-19
1.04437e-18
3.85085e-18
1.36683e-17
4.6699e-17
1.53572e-16
4.86075e-16
1.48069e-15
4.34082e-15
1.22465e-14
3.3249e-14
8.68928e-14
2.19e-13
5.37272e-13
1.31211e-12
3.40951e-12
2.27499e-11
4.7276e-10
1.14385e-08
2.48453e-07
4.64704e-06
7.28199e-05
0.000922131
0.00894239
0.0608305
0.246953
0.435999
0.654799
0.819391
0.806125
0.792208
0.770857
0.699525
0.463329
0.24715
0.104951
1.92345e-08
1.90242e-08
1.80892e-08
1.65355e-08
1.45309e-08
1.22753e-08
9.96857e-09
7.78193e-09
5.83966e-09
4.21238e-09
2.92079e-09
1.9467e-09
1.24714e-09
7.67976e-10
4.54554e-10
2.58598e-10
1.41403e-10
7.43163e-11
3.75397e-11
1.82254e-11
8.50421e-12
3.8138e-12
1.64378e-12
6.80903e-13
2.71068e-13
1.03709e-13
3.81317e-14
1.34637e-14
4.48311e-15
2.10304e-15
0
0
0
0
0
0
0
0
0
0
0
0
0
0
0
0
0
0
0
0
0
0
0
0
0
0
0
0
0
0
0
0
1.18962e-20
5.12617e-20
2.12652e-19
8.49209e-19
3.2644e-18
1.20785e-17
4.30152e-17
1.47437e-16
4.86347e-16
1.54391e-15
4.71643e-15
1.38645e-14
3.92168e-14
1.06735e-13
2.79506e-13
7.043e-13
1.70864e-12
4.00284e-12
9.15572e-12
2.04806e-11
4.44547e-11
9.89761e-11
3.98066e-10
6.17816e-09
1.39342e-07
2.83751e-06
4.85506e-05
0.000670483
0.00706846
0.0518545
0.220866
0.346064
0.33647
0.326653
0.31221
0.265565
0.114147
5.47647e-08
5.84811e-08
6.00381e-08
5.92553e-08
5.62222e-08
5.12817e-08
4.49659e-08
3.79022e-08
3.07113e-08
2.39209e-08
1.791e-08
1.28899e-08
8.91719e-09
5.92963e-09
3.79003e-09
2.32844e-09
1.37497e-09
7.80398e-10
4.25727e-10
2.2322e-10
1.1249e-10
5.44845e-11
2.5363e-11
1.13473e-11
4.87917e-12
2.01629e-12
8.00774e-13
3.05641e-13
1.12111e-13
3.9496e-14
1.31487e-14
6.19207e-15
0
0
0
0
0
0
0
0
0
0
0
0
0
0
0
0
0
0
0
0
0
0
0
0
0
0
0
0
0
0
0
0
3.51835e-20
1.52229e-19
6.33989e-19
2.54137e-18
9.80467e-18
3.64047e-17
1.30083e-16
4.47301e-16
1.48006e-15
4.71238e-15
1.44366e-14
4.25537e-14
1.20682e-13
3.29276e-13
8.64341e-13
2.18288e-12
5.30622e-12
1.24474e-11
2.84751e-11
6.36278e-11
1.37352e-10
2.8516e-10
5.69372e-10
1.09331e-09
2.01892e-09
3.58518e-09
6.12216e-09
1.00529e-08
1.58729e-08
2.40987e-08
3.51795e-08
4.93784e-08
6.66386e-08
8.64664e-08
1.07868e-07
1.29376e-07
1.49183e-07
1.65382e-07
1.76257e-07
1.80589e-07
1.77874e-07
1.68425e-07
1.53307e-07
1.34146e-07
1.12834e-07
9.12327e-08
7.09085e-08
5.29759e-08
3.8044e-08
2.62611e-08
1.74243e-08
1.11124e-08
6.81184e-09
4.01346e-09
2.27283e-09
1.23709e-09
6.47174e-10
3.254e-10
1.57248e-10
7.30335e-11
3.26002e-11
1.39855e-11
5.76616e-12
2.28478e-12
8.70053e-13
3.18406e-13
1.1193e-13
3.72567e-14
1.76141e-14
0
0
0
0
0
0
0
0
0
0
0
0
0
0
0
0
0
0
0
0
0
0
0
0
0
0
0
0
0
0
0
2.2149e-20
9.9982e-20
4.34376e-19
1.81621e-18
7.308e-18
2.82974e-17
1.05436e-16
3.78017e-16
1.30404e-15
4.32827e-15
1.38218e-14
4.24643e-14
1.2551e-13
3.56877e-13
9.76168e-13
2.56855e-12
6.50156e-12
1.58364e-11
3.72015e-11
8.51257e-11
1.9008e-10
4.0991e-10
8.50116e-10
1.69548e-09
3.25176e-09
5.99715e-09
1.06356e-08
1.81366e-08
2.97386e-08
4.68861e-08
7.10749e-08
1.03593e-07
1.45169e-07
1.95588e-07
2.53353e-07
3.15513e-07
3.77754e-07
4.34804e-07
4.81132e-07
5.11817e-07
5.23404e-07
5.14547e-07
4.86266e-07
4.41749e-07
3.85767e-07
3.2383e-07
2.61303e-07
2.02676e-07
1.51108e-07
1.0829e-07
7.45944e-08
4.93892e-08
3.14313e-08
1.92261e-08
1.13035e-08
6.38739e-09
3.46911e-09
1.81089e-09
9.0853e-10
4.38083e-10
2.0302e-10
9.04233e-11
3.8706e-11
1.59231e-11
6.29539e-12
2.392e-12
8.73442e-13
3.06397e-13
1.0197e-13
4.83944e-14
0
0
0
0
0
0
0
0
0
0
0
0
0
0
0
0
0
0
0
0
0
0
0
0
0
0
0
0
0
0
1.27825e-20
6.02181e-20
2.73e-19
1.19097e-18
4.99948e-18
2.01936e-17
7.84786e-17
2.9344e-16
1.05561e-15
3.65332e-15
1.21634e-14
3.89579e-14
1.20031e-13
3.55741e-13
1.01416e-12
2.781e-12
7.33508e-12
1.86089e-11
4.54206e-11
1.06857e-10
2.44605e-10
5.45871e-10
1.17615e-09
2.43692e-09
4.85528e-09
9.30188e-09
1.71357e-08
3.03525e-08
5.16942e-08
8.46515e-08
1.3328e-07
2.01754e-07
2.93629e-07
4.10855e-07
5.52693e-07
7.14787e-07
8.88712e-07
1.06226e-06
1.22061e-06
1.34833e-06
1.43179e-06
1.46159e-06
1.43425e-06
1.35292e-06
1.22676e-06
1.06927e-06
8.95878e-07
7.215e-07
5.58529e-07
4.15597e-07
2.97243e-07
2.04342e-07
1.35023e-07
8.57538e-08
5.23472e-08
3.07129e-08
1.73194e-08
9.38697e-09
4.88981e-09
2.4481e-09
1.17797e-09
5.44752e-10
2.42115e-10
1.03419e-10
4.24547e-11
1.67493e-11
6.35055e-12
2.31398e-12
8.1008e-13
2.69526e-13
1.2836e-13
0
0
0
0
0
0
0
0
0
0
0
0
0
0
0
0
0
0
0
0
0
0
0
0
0
0
0
0
0
0
3.32418e-20
1.57309e-19
7.16255e-19
3.1377e-18
1.32241e-17
5.36189e-17
2.09146e-16
7.84782e-16
2.8327e-15
9.8354e-15
3.2848e-14
1.05522e-13
3.26045e-13
9.68958e-13
2.76958e-12
7.61368e-12
2.01297e-11
5.11849e-11
1.25193e-10
2.94988e-10
6.75575e-10
1.50696e-09
3.2445e-09
6.71687e-09
1.33706e-08
2.55911e-08
4.70948e-08
8.33284e-08
1.41756e-07
2.31853e-07
3.64583e-07
5.5117e-07
8.01078e-07
1.11933e-06
1.50357e-06
1.94166e-06
2.41043e-06
2.87663e-06
3.30018e-06
3.63955e-06
3.85843e-06
3.93206e-06
3.85186e-06
3.62709e-06
3.28305e-06
2.85644e-06
2.38888e-06
1.92036e-06
1.48383e-06
1.10203e-06
7.86697e-07
5.39786e-07
3.55986e-07
2.2565e-07
1.37475e-07
8.05005e-08
4.53055e-08
2.45064e-08
1.27403e-08
6.36568e-09
3.05686e-09
1.4108e-09
6.25763e-10
2.66752e-10
1.09283e-10
4.30274e-11
1.62809e-11
5.92036e-12
2.06856e-12
6.87848e-13
3.28361e-13
0
0
0
0
0
0
0
0
0
0
0
0
0
0
0
0
0
0
0
0
0
0
0
0
0
0
0
0
0
1.68092e-20
8.30617e-20
3.94855e-19
1.80568e-18
7.94326e-18
3.3612e-17
1.36809e-16
5.35611e-16
2.0169e-15
7.30479e-15
2.54454e-14
8.5247e-14
2.74667e-13
8.51102e-13
2.53627e-12
7.26843e-12
2.00313e-11
5.30873e-11
1.35296e-10
3.31617e-10
7.82639e-10
1.79343e-09
3.99913e-09
8.60471e-09
1.78012e-08
3.54073e-08
6.77114e-08
1.24494e-07
2.20061e-07
3.73974e-07
6.10992e-07
9.59666e-07
1.44907e-06
2.10346e-06
2.9353e-06
3.93765e-06
5.0779e-06
6.29488e-06
7.50141e-06
8.593e-06
9.46213e-06
1.00155e-05
1.01903e-05
9.96621e-06
9.36913e-06
8.4662e-06
7.35351e-06
6.13922e-06
4.92652e-06
3.7999e-06
2.81712e-06
2.0074e-06
1.37486e-06
9.05044e-07
5.72622e-07
3.48216e-07
2.03521e-07
1.14325e-07
6.17234e-08
3.20276e-08
1.59722e-08
7.65538e-09
3.52637e-09
1.56115e-09
6.6422e-10
2.716e-10
1.06732e-10
4.03091e-11
1.46303e-11
5.10243e-12
1.69436e-12
8.08598e-13
0
0
0
0
0
0
0
0
0
0
0
0
0
0
0
0
0
0
0
0
0
0
0
0
0
0
0
0
0
4.01653e-20
1.9942e-19
9.52327e-19
4.37413e-18
1.93229e-17
8.20949e-17
3.35439e-16
1.31812e-15
4.98116e-15
1.81022e-14
6.32625e-14
2.12603e-13
6.87058e-13
2.13506e-12
6.37987e-12
1.83313e-11
5.06461e-11
1.34545e-10
3.43677e-10
8.44159e-10
1.99561e-09
4.57609e-09
1.02018e-08
2.19393e-08
4.53603e-08
9.01632e-08
1.72297e-07
3.16528e-07
5.59023e-07
9.49124e-07
1.54913e-06
2.43062e-06
3.66614e-06
5.31564e-06
7.40891e-06
9.92658e-06
1.27846e-05
1.58276e-05
1.88354e-05
2.1546e-05
2.36911e-05
2.50396e-05
2.54383e-05
2.48408e-05
2.33161e-05
2.10356e-05
1.82414e-05
1.52043e-05
1.21807e-05
9.37944e-06
6.94181e-06
4.9381e-06
3.37624e-06
2.21866e-06
1.4013e-06
8.50644e-07
4.96297e-07
2.78297e-07
1.49984e-07
7.76872e-08
3.8674e-08
1.85034e-08
8.50836e-09
3.76009e-09
1.597e-09
6.5188e-10
2.5573e-10
9.64155e-11
3.49349e-11
1.21637e-11
4.02671e-12
1.9099e-12
0
0
0
0
0
0
0
0
0
0
0
0
0
0
0
0
0
0
0
0
0
0
0
0
0
0
0
0
1.77758e-20
9.22144e-20
4.60039e-19
2.20702e-18
1.01817e-17
4.51684e-17
1.9268e-16
7.90347e-16
3.11726e-15
1.18221e-14
4.31095e-14
1.51149e-13
5.0955e-13
1.65161e-12
5.14715e-12
1.54226e-11
4.44297e-11
1.23059e-10
3.27695e-10
8.38962e-10
2.06511e-09
4.8904e-09
1.12228e-08
2.5017e-08
5.37777e-08
1.11133e-07
2.20777e-07
4.21624e-07
7.74028e-07
1.36597e-06
2.31726e-06
3.7788e-06
5.92344e-06
8.92547e-06
1.29277e-05
1.79987e-05
2.40872e-05
3.09854e-05
3.8313e-05
4.55357e-05
5.20202e-05
5.7122e-05
6.02897e-05
6.1163e-05
5.964e-05
5.58969e-05
5.03542e-05
4.35994e-05
3.62843e-05
2.90234e-05
2.23135e-05
1.64883e-05
1.17103e-05
7.99361e-06
5.24445e-06
3.30702e-06
2.00425e-06
1.16746e-06
6.53594e-07
3.51679e-07
1.81868e-07
9.03934e-08
4.31803e-08
1.98245e-08
8.74753e-09
3.70966e-09
1.51199e-09
5.92277e-10
2.2298e-10
8.06808e-11
2.80536e-11
9.22772e-12
4.30043e-12
0
0
0
0
0
0
0
0
0
0
0
0
0
0
0
0
0
0
0
0
0
0
0
0
0
0
0
0
3.90162e-20
2.03422e-19
1.01973e-18
4.91474e-18
2.2774e-17
1.0146e-16
4.34571e-16
1.78951e-15
7.08447e-15
2.69636e-14
9.86603e-14
3.47053e-13
1.17364e-12
3.81554e-12
1.1925e-11
3.5829e-11
1.03487e-10
2.87349e-10
7.67014e-10
1.96818e-09
4.85509e-09
1.15178e-08
2.64545e-08
5.89704e-08
1.26728e-07
2.61791e-07
5.1984e-07
9.9224e-07
1.8205e-06
3.21062e-06
5.44261e-06
8.86835e-06
1.38897e-05
2.091e-05
3.02569e-05
4.20825e-05
5.62578e-05
7.22882e-05
8.92797e-05
0.000105983
0.000120926
0.000132617
0.000139789
0.000141625
0.000137911
0.000129077
0.000116115
0.000100397
8.34332e-05
6.66415e-05
5.11608e-05
3.77499e-05
2.67719e-05
1.82485e-05
1.19553e-05
7.52794e-06
4.55591e-06
2.65006e-06
1.48156e-06
7.96097e-07
4.11143e-07
2.04081e-07
9.73631e-08
4.46445e-08
1.96755e-08
8.33421e-09
3.39303e-09
1.32769e-09
4.99331e-10
1.80496e-10
6.27036e-11
2.03822e-11
9.14588e-12
0
0
0
0
0
0
0
0
0
0
0
0
0
0
0
0
0
0
0
0
0
0
0
0
0
0
0
1.79133e-20
9.95845e-20
5.17571e-19
2.16864e-18
1.04795e-17
4.89773e-17
2.18996e-16
9.41881e-16
3.89373e-15
1.54727e-14
5.91005e-14
2.16992e-13
7.65808e-13
2.59788e-12
8.47114e-12
2.65513e-11
7.99929e-11
2.31653e-10
6.44829e-10
1.72533e-09
4.43729e-09
1.09695e-08
2.60704e-08