# vtk DataFile Version 2.0
Structured output generated by Nextsim
ASCII
DATASET STRUCTURED_POINTS
DIMENSIONS 3 3 1
ORIGIN 0 0 0
SPACING 0.5 0.5 0.5
POINT_DATA 9
SCALARS interpolate DOUBLE 1
LOOKUP_TABLE default
2.52801e-09
5.43202e-08
1.06112e-07
1.28411e-09
5.84816e-07
1.16835e-06
4.02091e-11
1.11531e-06
2.23058e-06
CELL_DATA 4
SCALARS average DOUBLE 1
LOOKUP_TABLE default
2.52801e-09
1.06112e-07
4.02091e-11
2.23058e-06
