# vtk DataFile Version 2.0
Structured output generated by Nextsim
ASCII
DATASET STRUCTURED_POINTS
DIMENSIONS 3 3 1
ORIGIN 0 0 0
SPACING 0.5 0.5 0.5
POINT_DATA 9
SCALARS interpolate DOUBLE 1
LOOKUP_TABLE default
2.17153e-07
8.84603e-06
1.74749e-05
1.09478e-07
0.000180746
0.000361383
1.80341e-09
0.000352646
0.000705291
CELL_DATA 4
SCALARS average DOUBLE 1
LOOKUP_TABLE default
2.17153e-07
1.74749e-05
1.80341e-09
0.000705291
