# vtk DataFile Version 2.0
Structured output generated by Nextsim
ASCII
DATASET STRUCTURED_POINTS
DIMENSIONS 3 3 1
ORIGIN 0 0 0
SPACING 0.5 0.5 0.5
POINT_DATA 9
SCALARS interpolate DOUBLE 1
LOOKUP_TABLE default
8.94208e-08
3.04455e-06
5.99969e-06
4.51556e-08
5.19701e-05
0.000103895
8.904e-10
0.000100896
0.000201791
CELL_DATA 4
SCALARS average DOUBLE 1
LOOKUP_TABLE default
8.94208e-08
5.99969e-06
8.904e-10
0.000201791
