# vtk DataFile Version 2.0
Structured output generated by Nextsim
ASCII
DATASET STRUCTURED_POINTS
DIMENSIONS 3 3 1
ORIGIN 0 0 0
SPACING 0.5 0.5 0.5
POINT_DATA 9
SCALARS interpolate DOUBLE 1
LOOKUP_TABLE default
1.07331e-07
3.77817e-06
7.44902e-06
5.41819e-08
6.66833e-05
0.000133312
1.03326e-09
0.000129588
0.000259176
CELL_DATA 4
SCALARS average DOUBLE 1
LOOKUP_TABLE default
1.07331e-07
7.44902e-06
1.03326e-09
0.000259176
