# vtk DataFile Version 2.0
Structured output generated by Nextsim
ASCII
DATASET STRUCTURED_POINTS
DIMENSIONS 101 101 1
ORIGIN 0 0 0
SPACING 0.01 0.01 0.01
POINT_DATA 10201
SCALARS interpolate DOUBLE 1
LOOKUP_TABLE default
0
0
0
0
0
0
0
0
0
0
0
0
0
0
0
0
0
0
0
0
0
0
0
0
0
0
0
0
0
0
0
0
0
0
0
0
0
0
0
0
0
0
0
0
0
0
0
0
0
0
0
0
0
0
0
0
0
0
0
0
0
0
0
0
0
0
0
0
0
0
0
0
0
0
0
0
0
0
0
0
0
0
0
0
0
0
0
0
0
0
0
0
0
0
0
0
0
0
0
0
0
0
0
0
0
0
0
0
0
0
0
0
0
0
0
0
0
0
0
0
0
0
0
0
0
0
0
0
0
0
0
0
0
0
0
0
0
0
0
0
0
0
0
0
0
0
0
0
0
0
0
0
0
0
0
0
0
0
0
0
0
0
0
0
0
0
0
0
0
0
0
0
0
0
0
0
0
0
0
0
0
0
0
0
0
0
0
0
0
0
0
0
0
0
0
0
0
0
0
0
0
0
0
0
0
0
0
0
0
0
0
0
0
0
0
0
0
0
0
0
0
0
0
0
0
0
0
0
0
0
0
0
0
0
0
0
0
0
0
0
0
0
0
0
0
0
0
0
0
0
0
0
0
0
0
0
0
0
0
0
0
0
0
0
0
0
0
0
0
0
0
0
0
0
0
0
0
0
0
0
0
0
0
0
0
0
0
0
0
0
0
0
0
0
0
0
0
0
0
0
0
0
0
0
0
0
0
0
0
0
0
0
0
0
0
0
0
0
0
0
0
0
0
0
0
0
0
0
0
0
0
0
0
0
0
0
0
0
0
0
0
0
0
0
0
0
0
0
0
0
0
0
0
0
0
0
0
0
0
0
0
0
0
0
0
0
0
0
0
0
0
0
0
0
0
0
0
0
0
0
0
0
0
0
0
0
0
0
0
0
0
0
0
0
0
0
0
0
0
0
0
0
0
0
0
0
0
0
0
0
0
0
0
0
0
0
0
0
0
0
0
0
0
0
0
0
0
0
0
0
0
0
0
0
0
0
0
0
0
0
0
0
0
0
0
0
0
0
0
0
0
0
0
0
0
0
0
0
0
0
0
0
0
0
0
0
0
0
0
0
0
0
0
0
0
0
0
0
0
0
0
0
0
0
0
0
0
0
0
0
0
0
0
0
0
0
0
0
0
0
0
0
0
0
0
0
0
0
0
0
0
0
0
0
0
0
0
0
0
0
0
0
0
0
0
0
0
0
0
0
0
0
0
0
0
0
0
0
0
0
0
0
0
0
0
0
0
0
0
0
0
0
0
0
0
0
0
0
0
0
0
0
0
0
0
0
0
0
1.49189e-20
3.94749e-20
9.20477e-20
1.7426e-19
2.24167e-19
1.29161e-19
3.14215e-20
1.79077e-20
0
0
0
0
0
0
0
0
0
0
0
0
0
0
0
0
0
0
0
0
0
0
0
0
0
0
0
0
0
0
0
0
0
0
0
0
0
0
0
0
0
0
0
0
0
0
0
0
0
0
0
0
0
0
0
0
0
0
0
0
0
0
0
0
0
0
0
0
0
0
0
0
0
0
0
0
0
0
0
0
0
0
0
0
0
0
0
0
0
0
1.19952e-20
6.21038e-20
2.37023e-19
6.78799e-19
1.69201e-18
3.74723e-18
6.80436e-18
8.48699e-18
4.80762e-18
1.14161e-18
6.41047e-19
1.4806e-19
7.66907e-20
0
0
0
0
0
0
0
0
0
0
0
0
0
0
0
0
0
0
0
0
0
0
0
0
0
0
0
0
0
0
0
0
0
0
0
0
0
0
0
0
0
0
0
0
0
0
0
0
0
0
0
0
0
0
0
0
0
0
0
0
0
0
0
0
0
0
0
0
0
0
0
0
0
0
0
0
0
0
0
0
0
0
0
0
0
0
1.07811e-20
8.9249e-20
5.85774e-19
2.92635e-18
1.0686e-17
2.88547e-17
6.76814e-17
1.422e-16
2.47431e-16
2.99064e-16
1.66578e-16
3.87598e-17
2.14474e-17
4.87717e-18
2.49669e-18
1.45194e-19
0
0
0
0
0
0
0
0
0
0
0
0
0
0
0
0
0
0
0
0
0
0
0
0
0
0
0
0
0
0
0
0
0
0
0
0
0
0
0
0
0
0
0
0
0
0
0
0
0
0
0
0
0
0
0
0
0
0
0
0
0
0
0
0
0
0
0
0
0
0
0
0
0
0
0
0
0
0
0
0
0
0
0
0
5.3326e-20
5.22302e-19
4.18757e-18
2.65928e-17
1.28162e-16
4.47976e-16
1.14047e-15
2.51458e-15
5.00662e-15
8.33987e-15
9.76254e-15
5.34795e-15
1.22476e-15
6.67974e-16
1.50119e-16
7.59491e-17
4.50968e-18
0
0
0
0
0
0
0
0
0
0
0
0
0
0
0
0
0
0
0
0
0
0
0
0
0
0
0
0
0
0
0
0
0
0
0
0
0
0
0
0
0
0
0
0
0
0
0
0
0
0
0
0
0
0
0
0
0
0
0
0
0
0
0
0
0
0
0
0
0
0
0
0
0
0
0
0
0
0
0
0
0
0
1.66317e-20
2.19604e-19
2.47825e-18
2.34655e-17
1.81889e-16
1.11626e-15
5.18768e-15
1.73635e-14
4.1679e-14
8.6296e-14
1.62651e-13
2.59133e-13
2.93616e-13
1.58239e-13
3.58504e-14
1.92775e-14
4.30013e-15
2.15019e-15
1.30841e-16
2.98811e-19
0
0
0
0
0
0
0
0
0
0
0
0
0
0
0
0
0
0
0
0
0
0
0
0
0
0
0
0
0
0
0
0
0
0
0
0
0
0
0
0
0
0
0
0
0
0
0
0
0
0
0
0
0
0
0
0
0
0
0
0
0
0
0
0
0
0
0
0
0
0
0
0
0
0
0
0
0
0
0
0
5.24048e-20
7.69696e-19
9.79558e-18
1.06537e-16
9.72496e-16
7.27114e-15
4.30533e-14
1.92799e-13
6.18108e-13
1.39915e-12
2.7178e-12
4.84428e-12
7.37469e-12
8.08391e-12
4.28813e-12
9.66815e-13
5.12786e-13
1.14097e-13
5.63932e-14
3.53171e-15
8.88871e-18
1.95635e-20
0
0
0
0
0
0
0
0
0
0
0
0
0
0
0
0
0
0
0
0
0
0
0
0
0
0
0
0
0
0
0
0
0
0
0
0
0
0
0
0
0
0
0
0
0
0
0
0
0
0
0
0
0
0
0
0
0
0
0
0
0
0
0
0
0
0
0
0
0
0
0
0
0
0
0
0
0
0
1.45218e-19
2.34139e-18
3.30348e-17
4.036e-16
4.21399e-15
3.69524e-14
2.65703e-13
1.51456e-12
6.52788e-12
2.00488e-11
4.28068e-11
7.79415e-11
1.31252e-10
1.90756e-10
2.02192e-10
1.05639e-10
2.38681e-11
1.24941e-11
2.78905e-12
1.36287e-12
8.82742e-14
2.46997e-16
5.95461e-19
0
0
0
0
0
0
0
0
0
0
0
0
0
0
0
0
0
0
0
0
0
0
0
0
0
0
0
0
0
0
0
0
0
0
0
0
0
0
0
0
0
0
0
0
0
0
0
0
0
0
0
0
0
0
0
0
0
0
0
0
0
0
0
0
0
0
0
0
0
0
0
0
0
0
0
0
1.81838e-20
3.59001e-19
6.29049e-18
9.71073e-17
1.30975e-15
1.52843e-14
1.5244e-13
1.27823e-12
8.80443e-12
4.8171e-11
1.99487e-10
5.86885e-10
1.18234e-09
2.01628e-09
3.20494e-09
4.44303e-09
4.55187e-09
2.34475e-09
5.35315e-10
2.76792e-10
6.24092e-11
3.01606e-11
2.03203e-12
6.38552e-15
1.69903e-17
0
0
0
0
0
0
0
0
0
0
0
0
0
0
0
0
0
0
0
0
0
0
0
0
0
0
0
0
0
0
0
0
0
0
0
0
0
0
0
0
0
0
0
0
0
0
0
0
0
0
0
0
0
0
0
0
0
0
0
0
0
0
0
0
0
0
0
0
0
0
0
0
0
0
0
3.77998e-20
8.01319e-19
1.51497e-17
2.53476e-16
3.72649e-15
4.7765e-14
5.29052e-13
5.00827e-12
3.99172e-11
2.62028e-10
1.37051e-09
5.43959e-09
1.53232e-08
2.91384e-08
4.65064e-08
6.97199e-08
9.21204e-08
9.11921e-08
4.63817e-08
1.08073e-08
5.52623e-09
1.26867e-09
6.06684e-10
4.2806e-11
1.5287e-13
4.5284e-16
0
0
0
0
0
0
0
0
0
0
0
0
0
0
0
0
0
0
0
0
0
0
0
0
0
0
0
0
0
0
0
0
0
0
0
0
0
0
0
0
0
0
0
0
0
0
0
0
0
0
0
0
0
0
0
0
0
0
0
0
0
0
0
0
0
0
0
0
0
0
0
0
0
0
7.37728e-20
1.63066e-18
3.30683e-17
5.96002e-16
9.4723e-15
1.31817e-13
1.59445e-12
1.66323e-11
1.48231e-10
1.11421e-09
6.9226e-09
3.44247e-08
1.30473e-07
3.5161e-07
6.31349e-07
9.42514e-07
1.33164e-06
1.67581e-06
1.60272e-06
8.06635e-07
1.94193e-07
9.83646e-08
2.32153e-08
1.09939e-08
8.18954e-10
3.37068e-12
1.12285e-14
0
0
0
0
0
0
0
0
0
0
0
0
0
0
0
0
0
0
0
0
0
0
0
0
0
0
0
0
0
0
0
0
0
0
0
0
0
0
0
0
0
0
0
0
0
0
0
0
0
0
0
0
0
0
0
0
0
0
0
0
0
0
0
0
0
0
0
0
0
0
0
0
0
1.38619e-19
3.1162e-18
6.58648e-17
1.27254e-15
2.1764e-14
3.26787e-13
4.27656e-12
4.84315e-11
4.71382e-10
3.91461e-09
2.74654e-08
1.60021e-07
7.50858e-07
2.70288e-06
6.95643e-06
1.17988e-05
1.64671e-05
2.19137e-05
2.62512e-05
2.42596e-05
1.2122e-05
3.06195e-06
1.54011e-06
3.78123e-07
1.77533e-07
1.41002e-08
6.80159e-11
2.57811e-13
0
0
0
0
0
0
0
0
0
0
0
0
0
0
0
0
0
0
0
0
0
0
0
0
0
0
0
0
0
0
0
0
0
0
0
0
0
0
0
0
0
0
0
0
0
0
0
0
0
0
0
0
0
0
0
0
0
0
0
0
0
0
0
0
0
0
0
0
0
0
0
1.02553e-20
2.4918e-19
5.70424e-18
1.22679e-16
2.47082e-15
4.53002e-14
7.31958e-13
1.03296e-11
1.26307e-10
1.32814e-09
1.19337e-08
9.11757e-08
5.89015e-07
3.1776e-06
1.39193e-05
4.72005e-05
0.000115665
0.000185347
0.00024177
0.000302926
0.000345329
0.000308578
0.000153883
4.15993e-05
2.08524e-05
5.40501e-06
2.52042e-06
2.16043e-07
1.24657e-09
5.45151e-12
0
0
0
0
0
0
0
0
0
0
0
0
0
0
0
0
0
0
0
0
0
0
0
0
0
0
0
0
0
0
0
0
0
0
0
0
0
0
0
0
0
0
0
0
0
0
0
0
0
0
0
0
0
0
0
0
0
0
0
0
0
0
0
0
0
0
0
0
0
0
1.70016e-20
4.21947e-19
9.8589e-18
2.16236e-16
4.43733e-15
8.48733e-14
1.47106e-12
2.23687e-11
2.95386e-10
3.35578e-09
3.25061e-08
2.66613e-07
1.84566e-06
1.07831e-05
5.29182e-05
0.000213081
0.000671944
0.00155916
0.00236017
0.00287754
0.00339452
0.00368306
0.00318759
0.0016002
0.000475294
0.000238771
6.65864e-05
3.0921e-05
2.90482e-06
2.05626e-08
1.05485e-10
0
0
0
0
0
0
0
0
0
0
0
0
0
0
0
0
0
0
0
0
0
0
0
0
0
0
0
0
0
0
0
0
0
0
0
0
0
0
0
0
0
0
0
0
0
0
0
0
0
0
0
0
0
0
0
0
0
0
0
0
0
0
0
0
0
0
0
0
0
2.57925e-20
6.55746e-19
1.56855e-17
3.51939e-16
7.38169e-15
1.44167e-13
2.61007e-12
4.26141e-11
6.07785e-10
7.48465e-09
7.86659e-08
6.97415e-07
5.16531e-06
3.18455e-05
0.000164357
0.000715399
0.0025874
0.0074264
0.0161452
0.0230644
0.0263032
0.0292346
0.0302238
0.0254301
0.0130499
0.00441621
0.00224371
0.000690166
0.000320511
3.36651e-05
3.01888e-07
1.85363e-09
0
0
0
0
0
0
0
0
0
0
0
0
0
0
0
0
0
0
0
0
0
0
0
0
0
0
0
0
0
0
0
0
0
0
0
0
0
0
0
0
0
0
0
0
0
0
0
0
0
0
0
0
0
0
0
0
0
0
0
0
0
0
0
0
0
0
0
0
3.44663e-20
9.00432e-19
2.21214e-17
5.09484e-16
1.09616e-14
2.19429e-13
4.06795e-12
6.94674e-11
1.06451e-09
1.4199e-08
1.62655e-07
1.57728e-06
1.27418e-05
8.44571e-05
0.000455489
0.00201516
0.00749545
0.0234854
0.059031
0.11755
0.157971
0.16893
0.177349
0.175326
0.144694
0.0782271
0.0317738
0.0165874
0.00582213
0.00272283
0.000328445
3.89013e-06
2.93109e-08
0
0
0
0
0
0
0
0
0
0
0
0
0
0
0
0
0
0
0
0
0
0
0
0
0
0
0
0
0
0
0
0
0
0
0
0
0
0
0
0
0
0
0
0
0
0
0
0
0
0
0
0
0
0
0
0
0
0
0
0
0
0
0
0
0
0
0
3.84494e-20
1.03525e-18
2.62041e-17
6.21561e-16
1.37667e-14
2.83546e-13
5.40507e-12
9.48341e-11
1.52155e-09
2.17968e-08
2.7109e-07
2.88266e-06
2.57464e-05
0.000189053
0.00111448
0.00517016
0.0188929
0.056743
0.145159
0.296085
0.509377
0.636935
0.644126
0.644335
0.616206
0.511377
0.311734
0.163977
0.0906763
0.0380919
0.0181634
0.00261193
4.32207e-05
4.124e-07
0
0
0
0
0
0
0
0
0
0
0
0
0
0
0
0
0
0
0
0
0
0
0
0
0
0
0
0
0
0
0
0
0
0
0
0
0
0
0
0
0
0
0
0
0
0
0
0
0
0
0
0
0
0
0
0
0
0
0
0
0
0
0
0
0
0
3.30133e-20
9.18649e-19
2.40276e-17
5.88825e-16
1.34711e-14
2.8652e-13
5.63847e-12
1.02091e-10
1.68956e-09
2.53569e-08
3.3805e-07
3.90669e-06
3.8464e-05
0.000315813
0.00210362
0.0109798
0.0431826
0.124801
0.277086
0.523625
0.743853
0.906522
0.999841
0.998834
0.992979
0.966771
0.88321
0.716104
0.533584
0.333738
0.179395
0.0893518
0.0161721
0.000404428
5.09064e-06
2.5745e-20
2.19164e-20
1.79436e-20
1.41228e-20
1.06853e-20
0
0
0
0
0
0
0
0
0
0
0
0
0
0
0
0
0
0
0
0
0
0
0
0
0
0
0
0
0
0
0
0
0
0
0
0
0
0
0
0
0
0
0
0
0
0
0
0
0
0
0
0
0
0
0
0
0
0
0
0
1.89019e-20
5.45128e-19
1.47777e-17
3.75358e-16
8.90118e-15
1.96251e-13
4.00367e-12
7.51568e-11
1.2897e-09
2.00728e-08
2.80676e-07
3.4676e-06
3.70933e-05
0.000336871
0.00253208
0.0152207
0.0697989
0.229035
0.499837
0.727173
0.899564
1
1
0.999999
0.999986
0.999871
0.999017
0.993888
0.970138
0.891768
0.728853
0.537785
0.295135
0.0728515
0.00308707
5.41408e-05
1.53107e-19
1.29915e-19
1.05937e-19
8.30438e-20
6.25792e-20
4.53319e-20
3.15659e-20
2.11281e-20
1.35933e-20
0
0
0
0
0
0
0
0
0
0
0
0
0
0
0
0
0
0
0
0
0
0
0
0
0
0
0
0
0
0
0
0
0
0
0
0
0
0
0
0
0
0
0
0
0
0
0
0
0
0
0
0
0
0
0
0
1.56701e-19
4.42413e-18
1.17093e-16
2.89501e-15
6.65942e-14
1.41865e-12
2.78375e-11
4.99989e-10
8.15853e-09
1.19859e-07
1.56801e-06
1.80131e-05
0.000178488
0.00149062
0.0101708
0.0542895
0.212862
0.559482
0.892068
1
1
1
1
1
1
0.999999
0.999987
0.999878
0.999007
0.993329
0.964271
0.854912
0.583282
0.216317
0.0183728
0.000484349
8.79511e-19
7.43917e-19
6.04252e-19
4.71834e-19
3.54182e-19
2.55576e-19
1.77279e-19
1.18203e-19
7.57576e-20
4.667e-20
2.76346e-20
1.57277e-20
0
0
0
0
0
0
0
0
0
0
0
0
0
0
0
0
0
0
0
0
0
0
0
0
0
0
0
0
0
0
0
0
0
0
0
0
0
0
0
0
0
0
0
0
0
0
0
0
0
0
0
0
0
2.80757e-19
8.02014e-18
2.14761e-16
5.37138e-15
1.24964e-13
2.69144e-12
5.33675e-11
9.67885e-10
1.59309e-08
2.35735e-07
3.09968e-06
3.55687e-05
0.000348148
0.00283303
0.0185148
0.0925494
0.329448
0.752896
1
1
1
1
1
1
1
1
0.999998
0.99998
0.999798
0.99832
0.988554
0.939076
0.762899
0.390135
0.0797874
0.00352626
4.87062e-18
4.11435e-18
3.32934e-18
2.58998e-18
1.93689e-18
1.39243e-18
9.62255e-19
6.39212e-19
4.08159e-19
2.50514e-19
1.4779e-19
8.38028e-20
4.56735e-20
2.3925e-20
1.20453e-20
0
0
0
0
0
0
0
0
0
0
0
0
0
0
0
0
0
0
0
0
0
0
0
0
0
0
0
0
0
0
0
0
0
0
0
0
0
0
0
0
0
0
0
0
0
0
0
0
0
4.20626e-20
1.28293e-18
3.66827e-17
9.79795e-16
2.43485e-14
5.60342e-13
1.18778e-11
2.30447e-10
4.06163e-09
6.44464e-08
9.10476e-07
1.12961e-05
0.000120899
0.00109012
0.00802269
0.0460867
0.193525
0.538493
0.884011
1
1
1
1
1
1
1
1
0.999999
0.999992
0.999916
0.999269
0.99474
0.969873
0.869767
0.605289
0.229916
0.019916
2.61763e-17
2.19747e-17
1.77174e-17
1.37329e-17
1.02329e-17
7.32987e-18
5.04714e-18
3.34069e-18
2.1255e-18
1.29989e-18
7.64129e-19
4.3175e-19
2.34473e-19
1.22389e-19
6.14003e-20
2.96054e-20
1.37194e-20
0
0
0
0
0
0
0
0
0
0
0
0
0
0
0
0
0
0
0
0
0
0
0
0
0
0
0
0
0
0
0
0
0
0
0
0
0
0
0
0
0
0
0
0
0
0
0
7.12853e-20
2.2029e-18
6.38178e-17
1.72696e-15
4.34739e-14
1.01325e-12
2.17442e-11
4.26848e-10
7.60555e-09
1.21849e-07
1.735e-06
2.1637e-05
0.000230978
0.00204885
0.0145755
0.0790924
0.303761
0.737406
1
1
1
1
1
1
1
1
1
1
0.999999
0.999987
0.999862
0.998762
0.990903
0.947886
0.782732
0.407925
0.0810638
1.35477e-16
1.13325e-16
9.10503e-17
7.03272e-17
5.22203e-17
3.72752e-17
2.55773e-17
1.68707e-17
1.06967e-17
6.51913e-18
3.81898e-18
2.15037e-18
1.1638e-18
6.0539e-19
3.02674e-19
1.45443e-19
6.717e-20
2.9814e-20
1.2718e-20
0
0
0
0
0
0
0
0
0
0
0
0
0
0
0
0
0
0
0
0
0
0
0
0
0
0
0
0
0
0
0
0
0
0
0
0
0
0
0
0
0
0
0
0
0
3.31422e-19
1.0311e-17
2.99646e-16
8.101e-15
2.02798e-13
4.67547e-12
9.86419e-11
1.8901e-09
3.25943e-08
5.00249e-07
6.73854e-06
7.82593e-05
0.000765756
0.00611768
0.0381361
0.173269
0.51591
0.875353
1
1
1
1
1
1
1
1
1
1
1
0.999995
0.999944
0.99947
0.995871
0.974434
0.880879
0.613757
0.210962
6.76857e-16
5.6422e-16
4.5179e-16
3.47786e-16
2.57372e-16
1.83096e-16
1.25213e-16
8.23132e-17
5.20146e-17
3.15944e-17
1.84465e-17
1.03521e-17
5.58401e-18
2.89507e-18
1.44264e-18
6.90932e-19
3.18042e-19
1.40701e-19
5.98231e-20
2.4445e-20
0
0
0
0
0
0
0
0
0
0
0
0
0
0
0
0
0
0
0
0
0
0
0
0
0
0
0
0
0
0
0
0
0
0
0
0
0
0
0
0
0
0
0
1.3874e-20
4.64478e-19
1.45802e-17
4.27547e-16
1.16639e-14
2.94643e-13
6.8542e-12
1.45888e-10
2.81928e-09
4.90082e-08
7.57585e-07
1.02651e-05
0.000119666
0.00117204
0.00933313
0.0575207
0.253948
0.704698
1
1
1
1
1
1
1
1
1
1
1
1
0.999999
0.99999
0.999886
0.998872
0.990929
0.943563
0.74857
0.296959
3.26649e-15
2.71164e-15
2.16424e-15
1.66061e-15
1.22491e-15
8.68574e-16
5.92062e-16
3.8795e-16
2.44356e-16
1.47945e-16
8.6099e-17
4.81626e-17
2.58956e-17
1.33826e-17
6.64727e-18
3.17343e-18
1.45609e-18
6.42118e-19
2.72146e-19
1.10852e-19
4.33937e-20
1.63227e-20
0
0
0
0
0
0
0
0
0
0
0
0
0
0
0
0
0
0
0
0
0
0
0
0
0
0
0
0
0
0
0
0
0
0
0
0
0
0
0
0
0
0
2.47458e-19
8.02098e-18
2.43137e-16
6.86361e-15
1.79592e-13
4.33197e-12
9.57094e-11
1.92208e-09
3.47631e-08
5.59829e-07
7.91367e-06
9.64022e-05
0.000987402
0.00821836
0.0528778
0.243083
0.697523
0.999998
1
1
1
1
1
1
1
1
1
1
1
0.999999
0.999992
0.999908
0.999044
0.991973
0.947916
0.758749
0.303677
1.51991e-14
1.25781e-14
1.00075e-14
7.65467e-15
5.62861e-15
3.97871e-15
2.70359e-15
1.76599e-15
1.10885e-15
6.69254e-16
3.88268e-16
2.16514e-16
1.16051e-16
5.97873e-17
2.96047e-17
1.40896e-17
6.44482e-18
2.83331e-18
1.19713e-18
4.8612e-19
1.89712e-19
7.11437e-20
2.5579e-20
0
0
0
0
0
0
0
0
0
0
0
0
0
0
0
0
0
0
0
0
0
0
0
0
0
0
0
0
0
0
0
0
0
0
0
0
0
0
0
0
0
1.17868e-19
3.99222e-18
1.26681e-16
3.74551e-15
1.02683e-13
2.59586e-12
6.0123e-11
1.26599e-09
2.40107e-08
4.05504e-07
6.01117e-06
7.67797e-05
0.000824312
0.00718715
0.0483839
0.232109
0.690101
0.999942
1
1
1
1
1
1
1
1
1
1
1
1
0.999994
0.999921
0.999155
0.992629
0.950573
0.764724
0.307553
6.82394e-14
5.63043e-14
4.46626e-14
3.4059e-14
2.49686e-14
1.75963e-14
1.19208e-14
7.76319e-15
4.85975e-15
2.92428e-15
1.6914e-15
9.40353e-16
5.02508e-16
2.58104e-16
1.27421e-16
6.04606e-17
2.75729e-17
1.20855e-17
5.09111e-18
2.06119e-18
8.02003e-19
2.99872e-19
1.07524e-19
3.5865e-20
1.64221e-20
0
0
0
0
0
0
0
0
0
0
0
0
0
0
0
0
0
0
0
0
0
0
0
0
0
0
0
0
0
0
0
0
0
0
0
0
0
0
0
5.45e-20
1.91035e-18
6.3603e-17
1.97581e-15
5.69261e-14
1.51259e-12
3.68253e-11
8.15129e-10
1.62518e-08
2.88522e-07
4.49555e-06
6.03414e-05
0.000680508
0.00622848
0.0439617
0.22053
0.680802
0.998627
0.999996
1
1
1
1
1
1
1
1
1
1
1
0.999993
0.99991
0.999028
0.991605
0.945056
0.748756
0.296194
2.956e-13
2.43196e-13
1.92353e-13
1.46259e-13
1.06911e-13
7.51252e-14
5.07464e-14
3.29513e-14
2.05674e-14
1.23401e-14
7.11671e-15
3.94509e-15
2.10205e-15
1.07654e-15
5.29924e-16
2.50716e-16
1.14007e-16
4.98259e-17
2.09289e-17
8.44883e-18
3.27794e-18
1.22212e-18
4.37057e-19
1.45662e-19
6.68671e-20
0
0
0
0
0
0
0
0
0
0
0
0
0
0
0
0
0
0
0
0
0
0
0
0
0
0
0
0
0
0
0
0
0
0
0
0
0
0
0
2.75106e-20
8.83896e-19
3.05735e-17
9.98504e-16
3.02763e-14
8.46677e-13
2.16921e-11
5.05189e-10
1.05942e-08
1.97735e-07
3.2369e-06
4.55985e-05
0.000539154
0.00517
0.0381974
0.200321
0.64488
0.977983
0.9999
1
1
1
1
1
1
1
1
1
1
0.999999
0.999984
0.999808
0.998065
0.984641
0.910941
0.657868
0.233325
1.23527e-12
1.01345e-12
7.99345e-13
6.06102e-13
4.41803e-13
3.09581e-13
2.08533e-13
1.35028e-13
8.40442e-14
5.02834e-14
2.89177e-14
1.59853e-14
8.49346e-15
4.33761e-15
2.12918e-15
1.00452e-15
4.55502e-16
1.98516e-16
8.31513e-17
3.34737e-17
1.29508e-17
4.81509e-18
1.71757e-18
5.71996e-19
2.63273e-19
0
0
0
0
0
0
0
0
0
0
0
0
0
0
0
0
0
0
0
0
0
0
0
0
0
0
0
0
0
0
0
0
0
0
0
0
0
0
0
2.54431e-20
3.41086e-19
1.04067e-17
3.4542e-16
1.07834e-14
3.10685e-13
8.19856e-12
1.96641e-10
4.24794e-09
8.17401e-08
1.38181e-06
2.01636e-05
0.000247949
0.00248632
0.0194097
0.109923
0.403036
0.808275
0.998002
0.999992
0.999999
0.999999
1
1
1
1
1
1
0.999999
0.999993
0.999942
0.999438
0.995018
0.964305
0.819942
0.442408
0.0912439
4.97907e-12
4.07408e-12
3.20478e-12
2.4235e-12
1.7618e-12
1.23121e-12
8.27101e-13
5.3411e-13
3.31543e-13
1.97824e-13
1.13459e-13
6.25484e-14
3.31437e-14
1.68806e-14
8.2636e-15
3.88811e-15
1.75829e-15
7.64218e-16
3.19237e-16
1.28166e-16
4.94526e-17
1.83371e-17
6.52469e-18
2.17139e-18
1.00216e-18
0
0
0
0
0
0
0
0
0
0
0
0
0
0
0
0
0
0
0
0
0
0
0
0
0
0
0
0
0
0
0
0
0
0
0
0
0
0
2.17405e-20
7.39441e-20
2.5809e-19
1.40586e-18
2.3197e-17
6.25638e-16
1.69986e-14
4.32535e-13
1.02572e-11
2.27387e-10
4.72367e-09
9.16657e-08
1.63988e-06
2.58658e-05
0.000342748
0.00367904
0.0303546
0.176815
0.622666
0.972683
0.999821
0.999966
0.99998
0.999996
0.999998
0.999999
0.999999
0.999999
0.999997
0.999989
0.999941
0.999707
0.998126
0.987581
0.924537
0.683743
0.248417
2.28001e-11
1.9356e-11
1.57974e-11
1.23947e-11
9.34892e-12
6.77879e-12
4.72498e-12
3.16591e-12
2.0391e-12
1.26245e-12
7.5131e-13
4.29778e-13
2.36311e-13
1.24891e-13
6.34424e-14
3.09758e-14
1.45363e-14
6.55639e-15
2.84219e-15
1.18416e-15
4.74169e-16
1.82479e-16
6.74875e-17
2.39554e-17
7.96731e-18
3.68755e-18
0
0
0
0
0
0
0
0
0
0
0
0
0
0
0
0
0
0
0
0
0
0
0
0
0
0
0
0
0
0
0
0
0
0
0
0
0
2.39155e-20
8.41708e-20
2.85251e-19
9.32007e-19
2.98313e-18
1.11112e-17
1.06589e-16
2.78846e-15
8.57052e-14
2.49761e-12
6.68793e-11
1.62233e-09
3.51574e-08
6.70047e-07
1.10125e-05
0.000152255
0.00171338
0.0149625
0.0941794
0.377916
0.7943
0.99685
0.999348
0.999633
0.999925
0.999957
0.999989
0.999985
0.999978
0.999961
0.999872
0.999437
0.998019
0.991673
0.96533
0.838453
0.464372
0.0980543
8.5684e-11
7.25633e-11
5.90772e-11
4.62381e-11
3.47896e-11
2.51629e-11
1.74955e-11
1.16933e-11
7.51261e-12
4.63956e-12
2.75415e-12
1.57152e-12
8.61912e-13
4.54373e-13
2.3023e-13
1.12126e-13
5.24853e-14
2.36129e-14
1.02103e-14
4.24323e-15
1.6948e-15
6.50578e-16
2.40002e-16
8.4992e-17
2.82516e-17
1.3114e-17
0
0
0
0
0
0
0
0
0
0
0
0
0
0
0
0
0
0
0
0
0
0
0
0
0
0
0
0
0
0
0
0
0
0
0
0
2.42144e-20
8.87733e-20
3.13331e-19
1.06466e-18
3.48247e-18
1.09673e-17
3.33329e-17
1.00495e-16
3.86422e-16
4.16058e-15
9.8223e-14
2.56255e-12
6.47294e-11
1.56804e-09
3.61385e-08
7.54469e-07
1.35666e-05
0.000204573
0.00249586
0.023348
0.153311
0.598355
0.961268
0.990599
0.994831
0.998826
0.99934
0.999827
0.999772
0.999698
0.999534
0.998757
0.995283
0.986811
0.959063
0.897019
0.692996
0.264463
3.53256e-10
3.10458e-10
2.62303e-10
2.13051e-10
1.66355e-10
1.24869e-10
9.0101e-11
6.24965e-11
4.16702e-11
2.67074e-11
1.64539e-11
9.7438e-12
5.54633e-12
3.03454e-12
1.59583e-12
8.06635e-13
3.91887e-13
1.82992e-13
8.21263e-14
3.54249e-14
1.4686e-14
5.85145e-15
2.24069e-15
8.24592e-16
2.91349e-16
9.67971e-17
4.50669e-17
0
0
0
0
0
0
0
0
0
0
0
0
0
0
0
0
0
0
0
0
0
0
0
0
0
0
0
0
0
0
0
0
0
0
0
2.25452e-20
8.61138e-20
3.16649e-19
1.12084e-18
3.819e-18
1.25247e-17
3.95352e-17
1.20114e-16
3.51488e-16
1.00139e-15
3.19002e-15
2.56242e-14
6.4497e-13
1.93873e-11
5.3955e-10
1.34207e-08
2.93012e-07
5.5054e-06
8.68627e-05
0.00111236
0.0109979
0.0775601
0.339871
0.722476
0.906172
0.948756
0.986009
0.992228
0.99776
0.997242
0.996612
0.995403
0.990182
0.968307
0.92769
0.823136
0.680237
0.414766
0.105373
1.23667e-09
1.08443e-09
9.14171e-10
7.40849e-10
5.77163e-10
4.32242e-10
3.11178e-10
2.15346e-10
1.43254e-10
9.16024e-11
5.63034e-11
3.32647e-11
1.88906e-11
1.03114e-11
5.40994e-12
2.72812e-12
1.32228e-12
6.15988e-13
2.75803e-13
1.18686e-13
4.90874e-14
1.95121e-14
7.4541e-15
2.73671e-15
9.64817e-16
3.20409e-16
1.49638e-16
0
0
0
0
0
0
0
0
0
0
0
0
0
0
0
0
0
0
0
0
0
0
0
0
0
0
0
0
0
0
0
0
0
0
1.92965e-20
7.68058e-20
2.94283e-19
1.08535e-18
3.8529e-18
1.31641e-17
4.32877e-17
1.36989e-16
4.17189e-16
1.22262e-15
3.44817e-15
9.3696e-15
2.48778e-14
7.46702e-14
5.19272e-13
1.05157e-11
2.85285e-10
7.60002e-09
1.78028e-07
3.58156e-06
6.03053e-05
0.000819644
0.00851646
0.0618463
0.265127
0.468755
0.696275
0.884011
0.935109
0.977707
0.9744
0.970699
0.964495
0.940158
0.84364
0.712826
0.476002
0.257355
0.110554
4.5844e-09
4.17277e-09
3.6513e-09
3.07147e-09
2.48378e-09
1.93081e-09
1.44285e-09
1.03646e-09
7.15685e-10
4.75038e-10
3.03085e-10
1.85876e-10
1.09572e-10
6.20851e-11
3.38128e-11
1.77001e-11
8.9056e-12
4.30666e-12
2.00171e-12
8.94212e-13
3.83931e-13
1.58428e-13
6.28312e-14
2.39484e-14
8.77245e-15
3.08608e-15
1.02448e-15
4.79975e-16
0
0
0
0
0
0
0
0
0
0
0
0
0
0
0
0
0
0
0
0
0
0
0
0
0
0
0
0
0
0
0
0
0
1.51775e-20
6.29653e-20
2.51436e-19
9.664e-19
3.57492e-18
1.27273e-17
4.36057e-17
1.43771e-16
4.56141e-16
1.39255e-15
4.09061e-15
1.15615e-14
3.14398e-14
8.22595e-14
2.07157e-13
5.03326e-13
1.18948e-12
2.80673e-12
1.02841e-11
1.54323e-10
4.14061e-09
1.04727e-07
2.2863e-06
4.17719e-05
0.000615595
0.0069248
0.0542517
0.248219
0.443683
0.6686
0.844705
0.833188
0.821235
0.803454
0.73986
0.4988
0.27368
0.118806
1.60844e-08
1.58091e-08
1.49381e-08
1.35695e-08
1.18496e-08
9.94754e-09
8.02762e-09
6.22749e-09
4.64395e-09
3.32893e-09
2.29382e-09
1.5193e-09
9.67282e-10
5.91945e-10
3.48196e-10
1.96868e-10
1.06986e-10
5.58828e-11
2.80557e-11
1.35378e-11
6.27856e-12
2.79864e-12
1.19896e-12
4.93664e-13
1.95352e-13
7.42954e-14
2.71551e-14
9.53314e-15
3.16368e-15
1.48705e-15
0
0
0
0
0
0
0
0
0
0
0
0
0
0
0
0
0
0
0
0
0
0
0
0
0
0
0
0
0
0
0
0
1.09661e-20
4.74286e-20
1.97431e-19
7.9097e-19
3.04965e-18
1.13153e-17
4.0401e-17
1.38805e-16
4.5887e-16
1.45958e-15
4.46689e-15
1.31524e-14
3.72573e-14
1.01534e-13
2.6619e-13
6.71377e-13
1.62966e-12
3.8159e-12
8.7049e-12
1.93791e-11
4.17093e-11
8.79998e-11
2.37666e-10
2.43885e-09
5.93677e-08
1.40464e-06
2.80271e-05
0.000450795
0.00552067
0.0467844
0.226338
0.36492
0.356244
0.347429
0.334791
0.29101
0.127674
4.67983e-08
4.96752e-08
5.06921e-08
4.97309e-08
4.6902e-08
4.25234e-08
3.70622e-08
3.10523e-08
2.50098e-08
1.93631e-08
1.44106e-08
1.03092e-08
7.08928e-09
4.686e-09
2.97731e-09
1.81827e-09
1.06735e-09
6.0222e-10
3.26591e-10
1.70234e-10
8.52864e-11
4.10673e-11
1.90061e-11
8.45401e-12
3.61412e-12
1.48493e-12
5.86371e-13
2.22532e-13
8.11633e-14
2.84361e-14
9.43436e-15
4.44933e-15
0
0
0
0
0
0
0
0
0
0
0
0
0
0
0
0
0
0
0
0
0
0
0
0
0
0
0
0
0
0
0
0
3.2813e-20
1.42421e-19
5.9488e-19
2.39109e-18
9.24807e-18
3.44175e-17
1.23243e-16
4.24604e-16
1.40743e-15
4.48826e-15
1.37696e-14
4.06389e-14
1.15379e-13
3.15112e-13
8.27837e-13
2.09204e-12
5.08707e-12
1.19264e-11
2.72122e-11
6.05352e-11
1.30023e-10
2.68574e-10
5.33494e-10
1.01907e-09
1.87188e-09
3.30629e-09
5.61542e-09
9.17053e-09
1.44002e-08
2.17416e-08
3.15618e-08
4.40521e-08
5.91154e-08
7.62704e-08
9.46073e-08
1.12824e-07
1.29353e-07
1.42576e-07
1.51079e-07
1.53901e-07
1.50714e-07
1.41885e-07
1.28405e-07
1.11708e-07
9.34199e-08
7.51002e-08
5.80341e-08
4.31084e-08
3.07801e-08
2.11254e-08
1.39367e-08
8.83747e-09
5.38651e-09
3.15568e-09
1.77696e-09
9.61743e-10
5.003e-10
2.50143e-10
1.20206e-10
5.55191e-11
2.4645e-11
1.05144e-11
4.31124e-12
1.69894e-12
6.43442e-13
2.342e-13
8.18935e-14
2.71643e-14
1.28546e-14
0
0
0
0
0
0
0
0
0
0
0
0
0
0
0
0
0
0
0
0
0
0
0
0
0
0
0
0
0
0
0
2.0842e-20
9.43472e-20
4.10964e-19
1.72245e-18
6.94606e-18
2.69504e-17
1.00602e-16
3.61287e-16
1.2482e-15
4.14847e-15
1.32633e-14
4.07907e-14
1.20671e-13
3.43375e-13
9.3982e-13
2.47412e-12
6.26469e-12
1.52606e-11
3.58244e-11
8.17646e-11
1.81783e-10
3.90111e-10
8.05059e-10
1.59758e-09
3.04847e-09
5.59341e-09
9.86819e-09
1.674e-08
2.73039e-08
4.28188e-08
6.45623e-08
9.35942e-08
1.30448e-07
1.748e-07
2.2519e-07
2.78905e-07
3.32091e-07
3.80142e-07
4.18327e-07
4.42548e-07
4.50065e-07
4.40003e-07
4.13518e-07
3.73583e-07
3.24436e-07
2.70841e-07
2.17339e-07
1.67647e-07
1.24303e-07
8.85915e-08
6.06906e-08
3.99637e-08
2.52941e-08
1.53879e-08
8.99785e-09
5.05702e-09
2.73175e-09
1.41833e-09
7.07771e-10
3.39459e-10
1.56479e-10
6.93258e-11
2.95188e-11
1.20799e-11
4.75098e-12
1.79579e-12
6.52343e-13
2.27677e-13
7.55069e-14
3.58536e-14
0
0
0
0
0
0
0
0
0
0
0
0
0
0
0
0
0
0
0
0
0
0
0
0
0
0
0
0
0
0
1.21488e-20
5.73723e-20
2.60681e-19
1.13956e-18
4.7926e-18
1.93908e-17
7.54737e-17
2.8259e-16
1.01781e-15
3.52622e-15
1.1751e-14
3.76663e-14
1.16126e-13
3.44346e-13
9.82063e-13
2.69372e-12
7.106e-12
1.80284e-11
4.3996e-11
1.03421e-10
2.36137e-10
5.24738e-10
1.12524e-09
2.32022e-09
4.60022e-09
8.76978e-09
1.6075e-08
2.83305e-08
4.80059e-08
7.82102e-08
1.22505e-07
1.84484e-07
2.67099e-07
3.71783e-07
4.97509e-07
6.40035e-07
7.91573e-07
9.41147e-07
1.07572e-06
1.18197e-06
1.24847e-06
1.26768e-06
1.23736e-06
1.16099e-06
1.04715e-06
9.07873e-07
7.5662e-07
6.06123e-07
4.66735e-07
3.45463e-07
2.45781e-07
1.68078e-07
1.10479e-07
6.97996e-08
4.23864e-08
2.47398e-08
1.38789e-08
7.4835e-09
3.87825e-09
1.93173e-09
9.24763e-10
4.25487e-10
1.88152e-10
7.99639e-11
3.26616e-11
1.28214e-11
4.8371e-12
1.7538e-12
6.10983e-13
2.02587e-13
9.65133e-14
0
0
0
0
0
0
0
0
0
0
0
0
0
0
0
0
0
0
0
0
0
0
0
0
0
0
0
0
0
0
3.20109e-20
1.5176e-19
6.92134e-19
3.03654e-18
1.28148e-17
5.20201e-17
2.03118e-16
7.62836e-16
2.75554e-15
9.57337e-15
3.19886e-14
1.02799e-13
3.1771e-13
9.4432e-13
2.69924e-12
7.41979e-12
1.96137e-11
4.98591e-11
1.21896e-10
2.86942e-10
6.55478e-10
1.45604e-09
3.12027e-09
6.42926e-09
1.27371e-08
2.42614e-08
4.44311e-08
7.82308e-08
1.32429e-07
2.15523e-07
3.37215e-07
5.07242e-07
7.33522e-07
1.01976e-06
1.36288e-06
1.75104e-06
2.16273e-06
2.56787e-06
2.93092e-06
3.21581e-06
3.39179e-06
3.43886e-06
3.35152e-06
3.13984e-06
2.82753e-06
2.44759e-06
2.03655e-06
1.62882e-06
1.25219e-06
9.25296e-07
6.57206e-07
4.48672e-07
2.94414e-07
1.85689e-07
1.12566e-07
6.55875e-08
3.673e-08
1.97699e-08
1.02274e-08
5.08514e-09
2.43003e-09
1.11606e-09
4.9264e-10
2.08993e-10
8.52098e-11
3.33888e-11
1.25737e-11
4.5506e-12
1.58254e-12
5.24557e-13
2.50595e-13
0
0
0
0
0
0
0
0
0
0
0
0
0
0
0
0
0
0
0
0
0
0
0
0
0
0
0
0
0
1.63797e-20
8.105e-20
3.85758e-19
1.76595e-18
7.77561e-18
3.29282e-17
1.34113e-16
5.25327e-16
1.97896e-15
7.16938e-15
2.49779e-14
8.36856e-14
2.69624e-13
8.35354e-13
2.48875e-12
7.12986e-12
1.96411e-11
5.2027e-11
1.32515e-10
3.24568e-10
7.65138e-10
1.74882e-09
3.88363e-09
8.31798e-09
1.71284e-08
3.39103e-08
6.45435e-08
1.18107e-07
2.07776e-07
3.51403e-07
5.71347e-07
8.93051e-07
1.34192e-06
1.93843e-06
2.69178e-06
3.59328e-06
4.61106e-06
5.68806e-06
6.74494e-06
7.68843e-06
8.42442e-06
8.8732e-06
8.98371e-06
8.74304e-06
8.17893e-06
7.35453e-06
6.35672e-06
5.28115e-06
4.21733e-06
3.2371e-06
2.38826e-06
1.6936e-06
1.15435e-06
7.56245e-07
4.76189e-07
2.88194e-07
1.6764e-07
9.3724e-08
5.03622e-08
2.60096e-08
1.29102e-08
6.15892e-09
2.82384e-09
1.24434e-09
5.26983e-10
2.14492e-10
8.3903e-11
3.15423e-11
1.13961e-11
3.95656e-12
1.31046e-12
6.26833e-13
0
0
0
0
0
0
0
0
0
0
0
0
0
0
0
0
0
0
0
0
0
0
0
0
0
0
0
0
0
3.96897e-20
1.972e-19
9.42275e-19
4.32994e-18
1.91342e-17
8.13114e-17
3.32276e-16
1.3057e-15
4.93376e-15
1.79264e-14
6.26306e-14
2.10401e-13
6.79627e-13
2.11082e-12
6.30351e-12
1.80992e-11
4.99666e-11
1.32628e-10
3.38473e-10
8.30544e-10
1.96084e-09
4.48462e-09
9.95723e-09
2.13167e-08
4.38726e-08
8.68064e-08
1.65117e-07
3.01931e-07
5.30756e-07
8.96914e-07
1.45703e-06
2.27534e-06
3.41571e-06
4.92908e-06
6.83754e-06
9.11755e-06
1.16869e-05
1.43998e-05
1.70549e-05
1.94166e-05
2.12484e-05
2.23514e-05
2.25999e-05
2.19648e-05
2.05194e-05
1.84253e-05
1.59029e-05
1.31931e-05
1.05201e-05
8.063e-06
5.9398e-06
4.20575e-06
2.86226e-06
1.87225e-06
1.17708e-06
7.1127e-07
4.1309e-07
2.30586e-07
1.23708e-07
6.37878e-08
3.16116e-08
1.50565e-08
6.89236e-09
3.03231e-09
1.28215e-09
5.21031e-10
2.0349e-10
7.6379e-11
2.75522e-11
9.55106e-12
3.15749e-12
1.50658e-12
0
0
0
0
0
0
0
0
0
0
0
0
0
0
0
0
0
0
0
0
0
0
0
0
0
0
0
0
1.78115e-20
9.2415e-20
4.61065e-19
2.21183e-18
1.02024e-17
4.52491e-17
1.92959e-16
7.91156e-16
3.11886e-15
1.18212e-14
4.30775e-14
1.50925e-13
5.08381e-13
1.64638e-12
5.12599e-12
1.53437e-11
4.41554e-11
1.22162e-10
3.24925e-10
8.30848e-10
2.0425e-09
4.82952e-09
1.10534e-08
2.45398e-08
5.25164e-08
1.08039e-07
2.13661e-07
4.06185e-07
7.42288e-07
1.30397e-06
2.20195e-06
3.57428e-06
5.57707e-06
8.36487e-06
1.20599e-05
1.67132e-05
2.22638e-05
2.85079e-05
3.50875e-05
4.15106e-05
4.72044e-05
5.15966e-05
5.4209e-05
5.47435e-05
5.31376e-05
4.95766e-05
4.44585e-05
3.83208e-05
3.17478e-05
2.52808e-05
1.93492e-05
1.4234e-05
1.00643e-05
6.83953e-06
4.46742e-06
2.80461e-06
1.69227e-06
9.81405e-07
5.47022e-07
2.93047e-07
1.50885e-07
7.46665e-08
3.55121e-08
1.62329e-08
7.13154e-09
3.01118e-09
1.22195e-09
4.76574e-10
1.78636e-10
6.4353e-11
2.2279e-11
7.33363e-12
3.4618e-12
0
0
0
0
0
0
0
0
0
0
0
0
0
0
0
0
0
0
0
0
0
0
0
0
0
0
0
0
3.96814e-20
2.0678e-19
1.03593e-18
4.98936e-18
2.3102e-17
1.02835e-16
4.40063e-16
1.81036e-15
7.15965e-15
2.72201e-14
9.94845e-14
3.49532e-13
1.18054e-12
3.833e-12
1.19634e-11
3.58945e-11
1.03528e-10
2.87038e-10
7.65024e-10
1.96003e-09
4.8273e-09
1.14321e-08
2.61853e-08
5.81342e-08
1.24377e-07
2.5579e-07
5.05657e-07
9.60846e-07
1.75499e-06
3.08119e-06
5.19973e-06
8.4345e-06
1.31508e-05
1.97088e-05
2.83908e-05
3.93102e-05
5.23167e-05
6.6924e-05
8.22866e-05
9.72478e-05
0.000110467
0.000120611
0.000126573
0.000127672
0.000123779
0.000115344
0.000103309
8.89356e-05
7.35879e-05
5.85233e-05
4.47346e-05
3.2866e-05
2.32081e-05
1.57515e-05
1.02751e-05
6.4423e-06
3.88221e-06
2.24854e-06
1.25171e-06
6.69717e-07
3.44396e-07
1.70218e-07
8.08597e-08
3.69179e-08
1.62002e-08
6.83253e-09
2.76961e-09
1.07903e-09
4.0404e-10
1.45409e-10
5.02931e-11
1.64091e-11
7.53987e-12
0
0
0
0
0
0
0
0
0
0
0
0
0
0
0
0
0
0
0
0
0
0
0
0
0
0
0
1.80821e-20
1.00168e-19
5.20511e-19
2.1828e-18
1.0748e-17
5.03106e-17
2.2459e-16
9.6451e-16
3.98122e-15
1.57957e-14
6.0238e-14
2.20808e-13
7.77979e-13
2.6347e-12
8.57638e-12
2.68341e-11
8.0701e-11
2.33282e-10
6.48177e-10
1.73107e-09
4.44374e-09
1.09646e-08
2.60079e-08
5.96247e-08
1.32397e-07
2.83237e-07
5.82389e-07
1.15098e-06
2.1863e-06
3.99154e-06
7.00426e-06
1.18133e-05
1.91501e-05
2.98372e-05
4.46823e-05
6.43132e-05
8.89723e-05
0.000118304
0.000151193
0.000185719
0.000219265
0.000248813
0.000271374
0.000284482
0.000286637
0.000277588
0.000258382
0.000231162
0.000198775
0.000164286
0.000130507
9.96457e-05
7.31268e-05
5.15808e-05
3.49699e-05
2.27873e-05
1.4272e-05
8.59159e-06
4.97113e-06
2.76459e-06
1.47776e-06