# vtk DataFile Version 2.0
Structured output generated by Nextsim
ASCII
DATASET STRUCTURED_POINTS
DIMENSIONS 3 3 1
ORIGIN 0 0 0
SPACING 0.5 0.5 0.5
POINT_DATA 9
SCALARS interpolate DOUBLE 1
LOOKUP_TABLE default
1.66273e-09
3.43339e-08
6.70051e-08
8.45138e-10
3.55216e-07
7.09588e-07
2.75452e-11
6.76099e-07
1.35217e-06
CELL_DATA 4
SCALARS average DOUBLE 1
LOOKUP_TABLE default
1.66273e-09
6.70051e-08
2.75452e-11
1.35217e-06
