# vtk DataFile Version 2.0
Structured output generated by Nextsim
ASCII
DATASET STRUCTURED_POINTS
DIMENSIONS 3 3 1
ORIGIN 0 0 0
SPACING 0.5 0.5 0.5
POINT_DATA 9
SCALARS interpolate DOUBLE 1
LOOKUP_TABLE default
3.56445e-07
1.64692e-05
3.2582e-05
1.79526e-07
0.00038182
0.00076346
2.6067e-09
0.00074717
0.00149434
CELL_DATA 4
SCALARS average DOUBLE 1
LOOKUP_TABLE default
3.56445e-07
3.2582e-05
2.6067e-09
0.00149434
