# vtk DataFile Version 2.0
Structured output generated by Nextsim
ASCII
DATASET STRUCTURED_POINTS
DIMENSIONS 101 101 1
ORIGIN 0 0 0
SPACING 0.01 0.01 0.01
POINT_DATA 10201
SCALARS interpolate DOUBLE 1
LOOKUP_TABLE default
0
0
0
0
0
0
0
0
0
0
0
0
0
0
0
0
0
0
0
0
0
0
0
0
0
0
0
0
0
0
0
0
0
0
0
0
0
0
0
0
0
0
0
0
0
0
0
0
0
0
0
0
0
0
0
0
0
0
0
0
0
0
0
0
0
0
0
0
0
0
0
0
0
0
0
0
0
0
0
0
0
0
0
0
0
0
0
0
0
0
0
0
0
0
0
0
0
0
0
0
0
0
0
0
0
0
0
0
0
0
0
0
0
0
0
0
0
0
0
0
0
0
0
0
0
0
0
0
0
0
0
0
0
0
0
0
0
0
0
0
0
0
0
0
0
0
0
0
0
0
0
0
0
0
0
0
0
0
0
0
0
0
0
0
0
0
0
0
0
0
0
0
0
0
0
0
0
0
0
0
0
0
0
0
0
0
0
0
0
0
0
0
0
0
0
0
0
0
0
0
0
0
0
0
0
0
0
0
0
0
0
0
0
0
0
0
0
0
0
0
0
0
0
0
0
0
0
0
0
0
0
0
0
0
0
0
0
0
0
0
0
0
0
0
0
0
0
0
0
0
0
0
0
0
0
0
0
0
0
0
0
0
0
0
0
0
0
0
0
0
0
0
0
0
0
0
0
0
0
0
0
0
0
0
0
0
0
0
0
0
0
0
0
0
0
0
0
0
0
0
0
0
0
0
0
0
0
0
0
0
0
0
0
0
0
0
0
0
0
0
0
0
0
0
0
0
0
0
0
0
0
0
0
0
0
0
0
0
0
0
0
0
0
0
0
0
0
0
0
0
0
0
0
0
0
0
0
0
0
0
0
0
0
0
0
0
0
0
0
0
0
0
0
0
0
0
0
0
0
0
0
0
0
0
0
0
0
0
0
0
0
0
0
0
0
0
0
0
0
0
0
0
0
0
0
0
0
0
0
0
0
0
0
0
0
0
0
0
0
0
0
0
0
0
0
0
0
0
0
0
0
0
0
0
0
0
0
0
0
0
0
0
0
0
0
0
0
0
0
0
0
0
0
0
0
0
0
0
0
0
0
0
0
0
0
0
0
0
0
0
0
0
0
0
0
0
0
0
0
0
0
0
0
0
0
0
0
0
0
0
0
0
0
0
0
0
0
0
0
0
0
0
0
0
0
0
0
0
0
0
0
0
0
0
0
0
0
0
0
0
0
0
0
0
0
0
0
0
0
0
0
0
0
0
0
0
0
0
0
0
0
0
0
0
0
0
0
0
0
0
0
0
0
0
0
0
0
0
0
0
0
0
0
0
0
0
0
0
0
0
0
0
0
0
0
0
0
0
0
0
0
0
0
0
0
0
0
0
0
0
0
0
0
0
0
0
0
0
0
0
0
0
0
0
0
0
0
0
0
0
0
0
0
0
0
0
0
0
0
0
0
0
0
0
0
0
0
0
0
0
0
0
0
0
0
0
0
0
0
0
0
0
0
0
0
0
0
0
0
0
0
0
0
0
0
0
0
0
0
0
0
0
0
0
0
0
0
0
0
0
0
0
0
0
0
0
0
0
0
0
0
0
0
0
0
0
0
0
0
0
0
0
0
0
0
0
0
0
0
0
0
0
0
0
0
0
0
0
0
0
0
0
0
0
0
0
0
0
0
0
0
0
0
0
0
0
0
0
0
0
0
0
0
0
0
0
0
0
0
0
0
0
0
0
0
0
0
0
0
0
0
0
0
0
0
0
0
0
0
0
0
0
0
0
0
0
0
0
0
0
-2.67966e-20
-8.63286e-20
-1.86755e-19
-2.93066e-19
1.74236e-20
4.74592e-19
2.97937e-19
0
-1.13066e-20
0
0
0
0
0
0
0
0
0
0
0
0
0
0
0
0
0
0
0
0
0
0
0
0
0
0
0
0
0
0
0
0
0
0
0
0
0
0
0
0
0
0
0
0
0
0
0
0
0
0
0
0
0
0
0
0
0
0
0
0
0
0
0
0
0
0
0
0
0
0
0
0
0
0
0
0
0
0
0
0
0
0
0
0
0
0
0
0
0
-1.41894e-20
-8.46987e-20
2.90717e-20
1.88675e-18
5.80236e-18
1.17692e-17
1.75486e-17
-1.20418e-19
-2.49409e-17
-1.53987e-17
1.02123e-19
5.88279e-19
3.30842e-20
0
0
0
0
0
0
0
0
0
0
0
0
0
0
0
0
0
0
0
0
0
0
0
0
0
0
0
0
0
0
0
0
0
0
0
0
0
0
0
0
0
0
0
0
0
0
0
0
0
0
0
0
0
0
0
0
0
0
0
0
0
0
0
0
0
0
0
0
0
0
0
0
0
0
0
0
0
0
0
0
0
0
0
0
0
0
0
1.00357e-19
1.12441e-18
6.4175e-18
-9.22459e-19
-1.19205e-16
-3.50675e-16
-6.66994e-16
-9.45242e-16
-3.89605e-17
1.17775e-15
7.1521e-16
-3.40221e-18
-2.76682e-17
-1.63483e-18
6.42196e-20
0
0
0
0
0
0
0
0
0
0
0
0
0
0
0
0
0
0
0
0
0
0
0
0
0
0
0
0
0
0
0
0
0
0
0
0
0
0
0
0
0
0
0
0
0
0
0
0
0
0
0
0
0
0
0
0
0
0
0
0
0
0
0
0
0
0
0
0
0
0
0
0
0
0
0
0
0
0
0
0
0
0
0
0
-1.80154e-20
-4.45043e-19
-7.44948e-18
-7.96199e-17
-4.34093e-16
-1.19002e-17
6.73078e-15
1.8983e-14
3.38558e-14
4.56201e-14
3.87641e-15
-4.97459e-14
-2.97345e-14
8.37144e-17
1.16771e-15
7.28305e-17
-3.03941e-18
-5.89843e-20
0
0
0
0
0
0
0
0
0
0
0
0
0
0
0
0
0
0
0
0
0
0
0
0
0
0
0
0
0
0
0
0
0
0
0
0
0
0
0
0
0
0
0
0
0
0
0
0
0
0
0
0
0
0
0
0
0
0
0
0
0
0
0
0
0
0
0
0
0
0
0
0
0
0
0
0
0
0
0
0
0
0
3.43015e-20
1.25944e-18
3.02403e-17
4.91985e-16
5.0009e-15
2.60852e-14
4.43805e-15
-3.37794e-13
-9.15531e-13
-1.53135e-12
-1.96138e-12
-2.45736e-13
1.8694e-12
1.09989e-12
-4.4433e-16
-4.44622e-14
-2.92664e-15
1.29739e-16
2.63214e-18
0
0
0
0
0
0
0
0
0
0
0
0
0
0
0
0
0
0
0
0
0
0
0
0
0
0
0
0
0
0
0
0
0
0
0
0
0
0
0
0
0
0
0
0
0
0
0
0
0
0
0
0
0
0
0
0
0
0
0
0
0
0
0
0
0
0
0
0
0
0
0
0
0
0
0
0
0
0
0
0
0
-1.49096e-20
-1.89265e-18
-7.26298e-17
-1.82289e-15
-2.83957e-14
-2.77975e-13
-1.3786e-12
-4.01967e-13
1.49637e-11
3.90739e-11
6.12704e-11
7.46614e-11
1.20735e-11
-6.19619e-11
-3.59789e-11
-6.82594e-14
1.49216e-12
1.04968e-13
-4.99744e-15
-1.06101e-16
2.92945e-19
0
0
0
0
0
0
0
0
0
0
0
0
0
0
0
0
0
0
0
0
0
0
0
0
0
0
0
0
0
0
0
0
0
0
0
0
0
0
0
0
0
0
0
0
0
0
0
0
0
0
0
0
0
0
0
0
0
0
0
0
0
0
0
0
0
0
0
0
0
0
0
0
0
0
0
0
0
0
0
-1.2847e-19
-1.28544e-18
5.77479e-17
3.69544e-15
9.12989e-14
1.4546e-12
1.34075e-11
6.37573e-11
2.43279e-11
-5.79461e-10
-1.46214e-09
-2.15116e-09
-2.48857e-09
-4.90497e-10
1.79748e-09
1.02842e-09
5.77839e-12
-4.54825e-11
-3.38938e-12
1.7193e-13
3.82535e-15
-1.26373e-17
0
0
0
0
0
0
0
0
0
0
0
0
0
0
0
0
0
0
0
0
0
0
0
0
0
0
0
0
0
0
0
0
0
0
0
0
0
0
0
0
0
0
0
0
0
0
0
0
0
0
0
0
0
0
0
0
0
0
0
0
0
0
0
0
0
0
0
0
0
0
0
0
0
0
0
0
0
1.71124e-20
4.23084e-19
1.65007e-17
2.62346e-16
-7.73878e-17
-1.2038e-13
-4.17554e-12
-6.18049e-11
-5.68024e-10
-2.51666e-09
-1.17836e-09
1.94057e-08
4.74323e-08
6.53698e-08
7.21023e-08
1.63871e-08
-4.47882e-08
-2.5518e-08
-2.11227e-10
1.16154e-09
9.52223e-11
-5.32778e-12
-1.24528e-13
4.91168e-16
0
0
0
0
0
0
0
0
0
0
0
0
0
0
0
0
0
0
0
0
0
0
0
0
0
0
0
0
0
0
0
0
0
0
0
0
0
0
0
0
0
0
0
0
0
0
0
0
0
0
0
0
0
0
0
0
0
0
0
0
0
0
0
0
0
0
0
0
0
0
0
0
0
0
0
0
-4.3037e-20
-4.77973e-19
-5.61632e-17
-1.05776e-15
-2.77802e-14
-2.62957e-13
3.48218e-12
1.29785e-10
2.42815e-09
1.96801e-08
8.54444e-08
4.17192e-08
-5.51108e-07
-1.31207e-06
-1.70027e-06
-1.76976e-06
-4.68765e-07
9.52899e-07
5.3345e-07
8.51243e-09
-2.83435e-08
-2.4408e-09
1.43861e-10
3.53734e-12
-1.72362e-14
0
0
0
0
0
0
0
0
0
0
0
0
0
0
0
0
0
0
0
0
0
0
0
0
0
0
0
0
0
0
0
0
0
0
0
0
0
0
0
0
0
0
0
0
0
0
0
0
0
0
0
0
0
0
0
0
0
0
0
0
0
0
0
0
0
0
0
0
0
0
0
0
0
0
0
1.05575e-19
-9.72214e-19
1.39197e-16
1.45799e-15
1.08605e-13
1.52028e-12
2.40194e-11
9.14472e-11
-4.56952e-09
-6.4893e-08
-6.20971e-07
-2.28954e-06
-1.33824e-06
1.31293e-05
3.03628e-05
3.67501e-05
3.68985e-05
1.05215e-05
-1.63737e-05
-9.4804e-06
-1.72654e-07
4.93044e-07
5.04684e-08
-3.54399e-09
-9.22331e-11
5.38503e-13
0
0
0
0
0
0
0
0
0
0
0
0
0
0
0
0
0
0
0
0
0
0
0
0
0
0
0
0
0
0
0
0
0
0
0
0
0
0
0
0
0
0
0
0
0
0
0
0
0
0
0
0
0
0
0
0
0
0
0
0
0
0
0
0
0
0
0
0
0
0
0
0
0
0
-2.58813e-19
6.25032e-18
-3.10541e-16
1.60852e-15
-2.66446e-13
-2.51085e-12
-1.2146e-10
-1.15549e-09
-8.4639e-09
2.96244e-08
2.13727e-06
1.27165e-05
5.36415e-05
2.17792e-05
-0.00024724
-0.00056926
-0.000653903
-0.000601835
-0.000213044
0.000234931
0.000128406
5.24778e-06
-1.02279e-05
-1.03967e-06
7.07604e-08
1.93794e-09
-1.52133e-11
0
0
0
0
0
0
0
0
0
0
0
0
0
0
0
0
0
0
0
0
0
0
0
0
0
0
0
0
0
0
0
0
0
0
0
0
0
0
0
0
0
0
0
0
0
0
0
0
0
0
0
0
0
0
0
0
0
0
0
0
0
0
0
0
0
0
0
0
0
0
0
0
-1.58827e-20
6.04523e-19
-1.78061e-17
6.39683e-16
-1.20014e-14
5.14578e-13
-1.1598e-12
2.8778e-10
2.52752e-09
7.31164e-08
4.13053e-07
-6.46446e-07
-1.9157e-05
-0.000333609
-0.000729888
-0.000563879
0.00386369
0.00835688
0.00888861
0.00838979
0.00274201
-0.00218088
-0.00153759
-6.01253e-05
8.79221e-05
1.33367e-05
-1.40075e-06
-4.14075e-08
3.70179e-10
0
0
0
0
0
0
0
0
0
0
0
0
0
0
0
0
0
0
0
0
0
0
0
0
0
0
0
0
0
0
0
0
0
0
0
0
0
0
0
0
0
0
0
0
0
0
0
0
0
0
0
0
0
0
0
0
0
0
0
0
0
0
0
0
0
0
0
0
0
0
0
2.96498e-20
-1.12029e-18
3.76295e-17
-1.17646e-15
3.05691e-14
-8.92016e-13
1.35048e-11
-4.62495e-10
3.84996e-10
-1.70831e-07
-1.36796e-06
-2.22909e-05
-3.33413e-05
0.000808726
0.0012674
0.012085
-0.00456513
-0.0362011
-0.0904619
-0.0941622
-0.0704785
-0.0423724
0.0195649
0.00871196
0.00133341
-0.00196607
-0.000251139
1.7637e-05
5.2671e-07
-8.37538e-09
0
0
0
0
0
0
0
0
0
0
0
0
0
0
0
0
0
0
0
0
0
0
0
0
0
0
0
0
0
0
0
0
0
0
0
0
0
0
0
0
0
0
0
0
0
0
0
0
0
0
0
0
0
0
0
0
0
0
0
0
0
0
0
0
0
0
0
0
0
0
-3.9784e-20
1.55651e-18
-5.45724e-17
1.74677e-15
-4.8803e-14
1.2845e-12
-2.84879e-11
6.09168e-10
-8.41253e-09
1.89901e-07
-9.2687e-08
4.88133e-05
0.000414122
0.00260461
-0.00494629
-0.0881147
0.000151088
-0.0792796
0.438644
0.696023
0.696947
0.687922
0.182552
0.00552569
-0.0981809
-0.0121248
0.003036
0.00110659
-0.00031498
-1.10751e-05
1.46686e-07
0
0
0
0
0
0
0
0
0
0
0
0
0
0
0
0
0
0
0
0
0
0
0
0
0
0
0
0
0
0
0
0
0
0
0
0
0
0
0
0
0
0
0
0
0
0
0
0
0
0
0
0
0
0
0
0
0
0
0
0
0
0
0
0
0
0
0
0
0
3.66322e-20
-1.49004e-18
5.49102e-17
-1.81174e-15
5.4398e-14
-1.42304e-12
3.48592e-11
-6.93855e-10
1.40419e-08
-1.88326e-07
3.23458e-06
-2.92192e-05
0.000250184
-0.00691764
-0.0435584
-0.102674
0.187913
0.981452
1.11536
1.1253
1.00089
0.999794
1.07073
1.05622
1.1702
0.67604
0.0727609
-0.140197
-0.0325335
0.00150096
2.80269e-05
-2.76587e-06
0
0
0
0
0
0
0
0
0
0
0
0
0
0
0
0
0
0
0
0
0
0
0
0
0
0
0
0
0
0
0
0
0
0
0
0
0
0
0
0
0
0
0
0
0
0
0
0
0
0
0
0
0
0
0
0
0
0
0
0
0
0
0
0
0
0
0
0
-1.2031e-20
5.11589e-19
-1.979e-17
6.81946e-16
-2.16855e-14
5.87649e-13
-1.56608e-11
3.05127e-10
-6.6914e-09
8.17197e-08
-2.00726e-06
9.65194e-06
-0.000395959
-0.00147402
-0.0583355
0.185351
0.681636
1.02631
1.12073
1
1
0.999999
1.00002
1.00003
1.00247
1.01589
1.11804
0.965886
0.626035
-0.0217749
-0.0380856
-0.00176005
2.74012e-05
0
0
0
0
0
0
0
0
0
0
0
0
0
0
0
0
0
0
0
0
0
0
0
0
0
0
0
0
0
0
0
0
0
0
0
0
0
0
0
0
0
0
0
0
0
0
0
0
0
0
0
0
0
0
0
0
0
0
0
0
0
0
0
0
0
0
0
-1.92122e-20
8.50432e-19
-3.40096e-17
1.22869e-15
-3.98311e-14
1.16351e-12
-2.99634e-11
6.99358e-10
-1.3678e-08
2.58038e-07
-3.44253e-06
5.19081e-05
-0.000453174
0.00398363
-0.0459756
0.14887
0.819524
1.12375
1
1
1
1
1
1
0.999999
1.00002
0.999951
1.00257
1.00724
1.1187
0.65049
-0.00386902
-0.00897242
-0.000537561
2.98545e-20
2.66104e-20
1.94648e-20
1.36191e-20
0
0
0
0
0
0
0
0
0
0
0
0
0
0
0
0
0
0
0
0
0
0
0
0
0
0
0
0
0
0
0
0
0
0
0
0
0
0
0
0
0
0
0
0
0
0
0
0
0
0
0
0
0
0
0
0
0
0
0
0
0
0
0
-2.2746e-19
9.44015e-18
-3.54284e-16
1.18813e-14
-3.61078e-13
9.53281e-12
-2.3381e-10
4.54592e-09
-9.30026e-08
1.07622e-06
-2.22541e-05
6.27127e-05
-0.00303409
-0.00797498
-0.13215
0.752146
1.12573
1
1
1
1
1
1
1
1
0.999999
1.00002
0.9999
1.00294
1.00178
1.14354
0.361173
-0.113872
0.00102714
2.35844e-19
1.71749e-19
1.25795e-19
8.81663e-20
5.90956e-20
3.78542e-20
2.31522e-20
1.35051e-20
0
0
0
0
0
0
0
0
0
0
0
0
0
0
0
0
0
0
0
0
0
0
0
0
0
0
0
0
0
0
0
0
0
0
0
0
0
0
0
0
0
0
0
0
0
0
0
0
0
0
0
0
0
0
0
0
0
0
0
1.03827e-19
-4.94152e-18
2.10134e-16
-7.95217e-15
2.68307e-13
-8.0046e-12
2.10297e-10
-4.87811e-09
9.45663e-08
-1.8092e-06
2.09105e-05
-0.000366591
0.00144976
-0.0388534
0.189937
1.04583
1
1
1
1
1
1
1
1
1
1
1
0.999981
1.00021
0.997561
1.02065
0.857816
0.00605949
-0.0563842
1.19872e-18
1.06472e-18
7.808e-19
5.48096e-19
3.68104e-19
2.36382e-19
1.45031e-19
8.49371e-20
4.74233e-20
2.5203e-20
1.27218e-20
0
0
0
0
0
0
0
0
0
0
0
0
0
0
0
0
0
0
0
0
0
0
0
0
0
0
0
0
0
0
0
0
0
0
0
0
0
0
0
0
0
0
0
0
0
0
0
0
0
0
0
0
0
0
0
-1.45873e-19
6.56112e-18
-2.65863e-16
9.67576e-15
-3.14812e-13
9.10978e-12
-2.32346e-10
5.18783e-09
-9.9311e-08
1.62898e-06
-2.13625e-05
0.000240082
-0.00164694
0.01294
0.00465559
0.933714
1.12865
1
1
1
1
1
1
1
1
1
1
0.999999
1.00001
0.999954
1.00224
1.00672
1.1398
0.730594
-0.0677683
8.11265e-18
6.33994e-18
4.65457e-18
3.27206e-18
2.20152e-18
1.41695e-18
8.71835e-19
5.12408e-19
2.87381e-19
1.53601e-19
7.81045e-20
3.76964e-20
1.7213e-20
0
0
0
0
0
0
0
0
0
0
0
0
0
0
0
0
0
0
0
0
0
0
0
0
0
0
0
0
0
0
0
0
0
0
0
0
0
0
0
0
0
0
0
0
0
0
0
0
0
0
0
0
0
-2.19104e-19
9.96249e-18
-4.0806e-16
1.50052e-14
-4.93207e-13
1.43959e-11
-3.70546e-10
8.29958e-09
-1.60376e-07
2.58293e-06
-3.4376e-05
0.000343061
-0.00268453
0.00701043
-0.0107689
1.17083
1
1
1
1
1
1
1
1
1
1
1
1
0.999997
1.00003
0.999634
1.00249
0.982639
0.966807
-0.197732
4.6986e-17
3.62609e-17
2.66495e-17
1.87588e-17
1.26424e-17
8.15376e-18
5.02984e-18
2.96566e-18
1.66991e-18
8.97012e-19
4.59027e-19
2.23364e-19
1.03094e-19
4.49749e-20
1.84481e-20
0
0
0
0
0
0
0
0
0
0
0
0
0
0
0
0
0
0
0
0
0
0
0
0
0
0
0
0
0
0
0
0
0
0
0
0
0
0
0
0
0
0
0
0
0
0
0
0
0
0
0
4.71265e-20
-2.58873e-18
1.26597e-16
-5.50835e-15
2.12954e-13
-7.28148e-12
2.19439e-10
-5.76414e-09
1.3161e-07
-2.54283e-06
4.19702e-05
-0.000551751
0.00624948
-0.0493466
0.41007
1.09827
1
1
1
1
1
1
1
1
1
1
1
1
0.999999
1.00002
0.999774
1.0024
0.987829
1.13226
0.106431
2.58466e-16
1.99205e-16
1.46545e-16
1.03281e-16
6.97116e-17
4.50457e-17
2.78523e-17
1.64693e-17
9.30647e-18
5.02119e-18
2.58373e-18
1.2661e-18
5.89683e-19
2.60335e-19
1.08531e-19
4.24812e-20
1.5471e-20
0
0
0
0
0
0
0
0
0
0
0
0
0
0
0
0
0
0
0
0
0
0
0
0
0
0
0
0
0
0
0
0
0
0
0
0
0
0
0
0
0
0
0
0
0
0
0
0
0
1.98326e-19
-1.00058e-17
4.55463e-16
-1.86479e-14
6.84041e-13
-2.23611e-11
6.47162e-10
-1.64298e-08
3.62195e-07
-6.81773e-06
0.000107688
-0.00139552
0.0144223
-0.116685
0.771411
1.00001
1
1
1
1
1
1
1
1
1
1
1
1
1
1.00001
0.999893
1.0014
0.985664
1.11706
0.229724
1.36698e-15
1.05117e-15
7.73987e-16
5.46101e-16
3.69119e-16
2.38926e-16
1.48043e-16
8.77657e-17
4.97524e-17
2.69484e-17
1.39341e-17
6.86963e-18
3.22423e-18
1.43766e-18
6.0727e-19
2.42004e-19
9.04248e-20
3.1364e-20
0
0
0
0
0
0
0
0
0
0
0
0
0
0
0
0
0
0
0
0
0
0
0
0
0
0
0
0
0
0
0
0
0
0
0
0
0
0
0
0
0
0
0
0
0
0
0
0
1.08527e-19
-5.71674e-18
2.72191e-16
-1.16573e-14
4.47368e-13
-1.53047e-11
4.63561e-10
-1.23248e-08
2.84338e-07
-5.61207e-06
9.29114e-05
-0.00126043
0.0135763
-0.113707
0.760562
0.999808
1
1
1
1
1
1
1
1
1
1
1
1
1
1.00001
0.999902
1.00125
0.985297
1.11234
0.233361
6.93014e-15
5.32789e-15
3.92626e-15
2.77314e-15
1.87682e-15
1.21676e-15
7.55379e-16
4.48868e-16
2.55179e-16
1.387e-16
7.20236e-17
3.56963e-17
1.68649e-17
7.58321e-18
3.23806e-18
1.30909e-18
4.9889e-19
1.78035e-19
5.88484e-20
1.76658e-20
0
0
0
0
0
0
0
0
0
0
0
0
0
0
0
0
0
0
0
0
0
0
0
0
0
0
0
0
0
0
0
0
0
0
0
0
0
0
0
0
0
0
0
0
0
0
5.63721e-20
-3.07064e-18
1.54019e-16
-6.93971e-15
2.80179e-13
-1.0081e-11
3.21099e-10
-8.97077e-09
2.17534e-07
-4.49966e-06
7.81754e-05
-0.00110236
0.012505
-0.104599
0.748907
1.01526
0.999996
1
1
1
1
1
1
1
1
1
1
1
1
1.00001
0.999907
1.00147
0.989576
1.16177
0.25976
3.37224e-14
2.59388e-14
1.91298e-14
1.35245e-14
9.16408e-15
5.94976e-15
3.70016e-15
2.20341e-15
1.25584e-15
6.84724e-16
3.56909e-16
1.77711e-16
8.44417e-17
3.82407e-17
1.64775e-17
6.74012e-18
2.60903e-18
9.51319e-19
3.24438e-19
1.02284e-19
2.91732e-20
0
0
0
0
0
0
0
0
0
0
0
0
0
0
0
0
0
0
0
0
0
0
0
0
0
0
0
0
0
0
0
0
0
0
0
0
0
0
0
0
0
0
0
0
0
2.10712e-20
-8.75565e-19
4.57821e-17
-2.10004e-15
8.63106e-14
-3.15876e-12
1.02189e-10
-2.90454e-09
7.1458e-08
-1.51652e-06
2.67866e-05
-0.000401434
0.00457201
-0.0470991
0.309411
1.08756
1.00028
1
1
1
1
1
1
1
1
1
1
1
1
1.00001
0.999886
1.00143
0.984489
1.01894
-0.0592545
1.57611e-13
1.213e-13
8.95227e-14
6.33479e-14
4.29708e-14
2.79357e-14
1.74011e-14
1.03822e-14
5.93109e-15
3.24283e-15
1.696e-15
8.47919e-16
4.0491e-16
1.84498e-16
8.01094e-17
3.30887e-17
1.29706e-17
4.8095e-18
1.67884e-18
5.47588e-19
1.6483e-19
4.47574e-20
1.01623e-20
0
-1.56016e-20
0
0
0
0
0
0
0
0
0
0
0
0
0
0
0
0
0
0
0
0
0
0
0
0
0
0
0
0
0
0
0
0
0
0
0
0
0
0
0
0
0
2.23306e-20
3.42707e-19
-1.39875e-17
7.25589e-16
-3.28577e-14
1.32322e-12
-4.69893e-11
1.45428e-09
-3.88389e-08
8.72017e-07
-1.60597e-05
0.000236992
-0.00254303
0.0195043
-0.0519399
1.18406
1.0005
0.999993
1
1
1
1
1
1
1
1
1
1
0.999999
0.999993
0.999793
0.997898
1.01618
1.03478
-0.126871
7.07597e-13
5.44864e-13
4.02392e-13
2.84975e-13
1.93502e-13
1.25951e-13
7.85696e-14
4.696e-14
2.68834e-14
1.47354e-14
7.72979e-15
3.8785e-15
1.86021e-15
8.52125e-16
3.72422e-16
1.55087e-16
6.14256e-17
2.30842e-17
8.20362e-18
2.74324e-18
8.5652e-19
2.46553e-19
6.29092e-20
2.25185e-20
-6.14478e-20
0
0
0
0
0
0
0
0
0
0
0
0
0
0
0
0
0
0
0
0
0
0
0
0
0
0
0
0
0
0
0
0
0
0
0
0
0
0
0
0
3.47613e-20
1.21962e-19
5.09535e-19
-4.00664e-18
2.82167e-16
-1.29028e-14
5.33373e-13
-1.94331e-11
6.19074e-10
-1.70118e-08
3.96942e-07
-7.67192e-06
0.000118593
-0.00139734
0.0112959
-0.059818
0.813845
1.13948
1.00038
0.999989
1
1
1
1
1
1
1
1
0.999999
1.00001
0.999993
1.00072
1.0111
1.09288
0.483599
-0.117831
3.05153e-12
2.3509e-12
1.73726e-12
1.23127e-12
8.36828e-13
5.45304e-13
3.40623e-13
2.03912e-13
1.16957e-13
6.42516e-14
3.37953e-14
1.70116e-14
8.19053e-15
3.76935e-15
1.6567e-15
6.94688e-16
2.7753e-16
1.05444e-16
3.80076e-17
1.29526e-17
4.1523e-18
1.24256e-18
3.39116e-19
1.16981e-19
-2.31222e-19
0
0
0
0
0
0
0
0
0
0
0
0
0
0
0
0
0
0
0
0
0
0
0
0
0
0
0
0
0
0
0
0
0
0
0
0
0
0
1.09214e-20
4.23745e-20
1.56232e-19
5.48435e-19
1.83811e-18
5.75993e-18
2.32904e-17
-1.83855e-16
9.4465e-15
-3.25535e-13
1.04092e-11
-2.92567e-10
8.03124e-09
-2.0931e-07
4.13263e-06
-7.92747e-05
0.00100426
-0.0128748
0.103804
0.999736
1.0001
1.00052
1
0.999987
1.00001
1
1
1
1
1.00001
0.999994
1.00001
1.00012
0.997209
1.02834
0.789722
-0.0356146
1.57355e-11
1.26411e-11
9.74312e-12
7.20407e-12
5.10946e-12
3.47561e-12
2.26716e-12
1.41792e-12
8.50068e-13
4.88413e-13
2.68865e-13
1.41761e-13
7.15627e-14
3.45726e-14
1.59754e-14
7.0559e-15
2.97627e-15
1.1977e-15
4.59189e-16
1.67423e-16
5.79098e-17
1.89366e-17
5.8252e-18
1.66076e-18
5.59746e-19
-8.30083e-19
0
0
0
0
0
0
0
0
0
0
0
0
0
0
0
0
0
0
0
0
0
0
0
0
0
0
0
0
0
0
0
0
0
0
0
0
0
1.1882e-20
4.78034e-20
1.82908e-19
6.66791e-19
2.31913e-18
7.70354e-18
2.44688e-17
7.37111e-17
2.51534e-16
-1.36206e-15
9.56228e-14
-4.09525e-12
1.45951e-10
-5.10734e-09
1.16267e-07
-3.65591e-06
3.27009e-05
-0.00139304
-0.00150839
-0.156376
0.624681
1.14049
0.999339
0.999644
1.00067
0.99989
0.999928
0.99997
0.999961
0.999944
0.999868
0.999713
1.0014
0.99548
1.01993
1.11272
0.338706
-0.121616
6.25951e-11
5.03021e-11
3.87868e-11
2.86943e-11
2.03647e-11
1.38637e-11
9.05195e-12
5.66764e-12
3.4024e-12
1.95795e-12
1.07982e-12
5.70584e-13
2.88778e-13
1.39934e-13
6.4893e-14
2.87841e-14
1.22038e-14
4.94156e-15
1.90898e-15
7.02608e-16
2.45936e-16
8.16712e-17
2.56448e-17
7.53773e-18
2.50068e-18
-2.83785e-18
0
0
0
0
0
0
0
0
0
0
0
0
0
0
0
0
0
0
0
0
0
0
0
0
0
0
0
0
0
0
0
0
0
0
0
0
1.1953e-20
4.98586e-20
1.97956e-19
7.49291e-19
2.70718e-18
9.34501e-18
3.08438e-17
9.73981e-17
2.94388e-16
8.5301e-16
2.31634e-15
8.61969e-15
-9.21704e-14
4.43599e-12
-1.75466e-10
5.72965e-09
-1.84473e-07
3.71273e-06
-0.000104078
0.000748406
-0.0263167
0.00653204
0.673725
1.15544
1.00373
1.00174
1.00169
1.00121
1.00056
1.00067
1.00095
1.00168
0.999104
1.01247
1.02854
1.12508
0.460437
-0.103775
2.85555e-10
2.39191e-10
1.92275e-10
1.48317e-10
1.09779e-10
7.79587e-11
5.3111e-11
3.4708e-11
2.17541e-11
1.30754e-11
7.5352e-12
4.1627e-12
2.20392e-12
1.118e-12
5.43214e-13
2.52712e-13
1.12514e-13
4.79164e-14
1.95059e-14
7.58392e-15
2.81331e-15
9.94379e-16
3.34295e-16
1.06644e-16
3.20563e-17
1.05143e-17
-9.21654e-18
0
0
0
0
0
0
0
0
0
0
0
0
0
0
0
0
0
0
0
0
0
0
0
0
0
0
0
0
0
0
0
0
0
0
0
1.11123e-20
4.80567e-20
1.97978e-19
7.78036e-19
2.91991e-18
1.04736e-17
3.59315e-17
1.17965e-16
3.70787e-16
1.11624e-15
3.21957e-15
8.89933e-15
2.35749e-14
6.05526e-14
9.71252e-14
2.803e-12
-1.076e-10
3.85023e-09
-1.3361e-07
2.96452e-06
-8.81839e-05
0.000744066
-0.0260053
0.0132398
0.457699
0.933768
1.14393
0.980364
0.9874
0.991706
0.99054
0.990655
0.984781
0.99746
1.11289
0.80055
0.300794
-0.101661
1.20056e-09
1.04797e-09
8.78001e-10
7.05985e-10
5.44784e-10
4.03414e-10
2.86643e-10
1.95414e-10
1.27806e-10
8.01823e-11
4.8248e-11
2.78413e-11
1.5404e-11
8.17012e-12
4.15311e-12
2.0228e-12
9.43699e-13
4.21554e-13
1.80227e-13
7.37063e-14
2.88152e-14
1.07603e-14
3.83409e-15
1.30188e-15
4.20554e-16
1.28594e-16
4.18188e-17
-2.83382e-17
0
0
0
0
0
0
0
0
0
0
0
0
0
0
0
0
0
0
0
0
0
0
0
0
0
0
0
0
0
0
0
0
0
0
0
4.2784e-20
1.82892e-19
7.46244e-19
2.90904e-18
1.08425e-17
3.86626e-17
1.31962e-16
4.31309e-16
1.35039e-15
4.05129e-15
1.16493e-14
3.21126e-14
8.48796e-14
2.15154e-13
5.22921e-13
1.23053e-12
2.05297e-12
3.5143e-11
-1.24997e-09
3.52016e-08
-1.35972e-06
1.27936e-05
-0.000779253
-0.00408401
-0.136342
0.0161004
0.764768
1.08219
1.12417
1.09045
1.09433
1.12546
1.05187
1.04518
0.550701
-0.0344389
-0.127567
4.65314e-09
4.23196e-09
3.69455e-09
3.09592e-09
2.49003e-09
1.92212e-09
1.42395e-09
1.0123e-09
6.90556e-10
4.5198e-10
2.8381e-10
1.70952e-10
9.87657e-11
5.47213e-11
2.90705e-11
1.48051e-11
7.22658e-12
3.37993e-12
1.51426e-12
6.49615e-13
2.66739e-13
1.04777e-13
3.93475e-14
1.41156e-14
4.83265e-15
1.57701e-15
4.88715e-16
1.57877e-16
-8.20807e-17
0
0
0
0
0
0
0
0
0
0
0
0
0
0
0
0
0
0
0
0
0
0
0
0
0
0
0
0
0
0
0
0
0
0
3.51621e-20
1.55988e-19
6.60867e-19
2.6761e-18
1.03646e-17
3.84149e-17
1.36315e-16
4.63284e-16
1.50852e-15
4.70735e-15
1.40806e-14
4.0381e-14
1.1105e-13
2.92899e-13
7.41001e-13
1.79862e-12
4.18077e-12
9.32498e-12
1.99904e-11
4.21801e-11
2.97193e-11
2.29756e-09
-8.84488e-08
2.20824e-06
-8.13739e-05
0.000595766
-0.0330032
-0.0754476
-0.195815
0.10688
0.305119
0.291601
0.290141
-0.000422892
-0.157932
-0.10836
1.685e-08
1.66294e-08
1.57555e-08
1.43302e-08
1.25119e-08
1.04865e-08
8.43627e-09
6.51425e-09
4.8278e-09
3.43381e-09
2.34378e-09
1.5351e-09
9.64712e-10
5.81643e-10
3.36406e-10
1.86624e-10
9.92888e-11
5.06517e-11
2.47723e-11
1.16124e-11
5.21612e-12
2.24449e-12
9.24866e-13
3.64794e-13
1.3766e-13
4.96696e-14
1.71225e-14
5.63421e-15
1.76491e-15
5.67134e-16
-2.22245e-16
0
0
0
0
0
0
0
0
0
0
0
0
0
0
0
0
0
0
0
0
0
0
0
0
0
0
0
0
0
0
0
0
0
2.66599e-20
1.22763e-19
5.40121e-19
2.27222e-18
9.14541e-18
3.52343e-17
1.29991e-16
4.59408e-16
1.55577e-15
5.04973e-15
1.57129e-14
4.68807e-14
1.34138e-13
3.68125e-13
9.69123e-13
2.44761e-12
5.93176e-12
1.37679e-11
3.06675e-11
6.57084e-11
1.35105e-10
2.66606e-10
5.04962e-10
9.18054e-10
1.60223e-09
2.68441e-09
4.31775e-09
6.66756e-09
9.88524e-09
1.40711e-08
1.92306e-08
2.5234e-08
3.17916e-08
3.84565e-08
4.4664e-08
4.98049e-08
5.33222e-08
5.481e-08
5.40903e-08
5.12479e-08
4.66144e-08
4.07041e-08
3.41204e-08
2.74558e-08
2.12068e-08
1.57224e-08
1.11877e-08
7.64041e-09
5.00741e-09
3.14919e-09
1.90036e-09
1.10022e-09
6.11064e-10
3.25538e-10
1.66327e-10
8.14894e-11
3.82768e-11
1.72336e-11
7.43554e-12
3.07342e-12
1.21663e-12
4.61043e-13
1.67173e-13
5.79659e-14
1.92068e-14
6.0695e-15
1.94196e-15
-5.55321e-16
0
0
0
0
0
0
0
0
0
0
0
0
0
0
0
0
0
0
0
0
0
0
0
0
0
0
0
0
0
0
0
0
1.86345e-20
8.90935e-20
4.07166e-19
1.77983e-18
7.4456e-18
2.98213e-17
1.14398e-16
4.20452e-16
1.48093e-15
5.00003e-15
1.61853e-14
5.02403e-14
1.49567e-13
4.27101e-13
1.17001e-12
3.0751e-12
7.75485e-12
1.87678e-11
4.35054e-11
9.6796e-11
2.07135e-10
4.25423e-10
8.38677e-10
1.5871e-09
2.8832e-09
5.02838e-09
8.41939e-09
1.35346e-08
2.08898e-08
3.09569e-08
4.40474e-08
6.01767e-08
7.89374e-08
9.9423e-08
1.20237e-07
1.39617e-07
1.55661e-07
1.66633e-07
1.71268e-07
1.69012e-07
1.60131e-07
1.4566e-07
1.27204e-07
1.06646e-07
8.5833e-08
6.63155e-08
4.91822e-08
3.50115e-08
2.39222e-08
1.56875e-08
9.87276e-09
5.96242e-09
3.45517e-09
1.92105e-09
1.02466e-09
5.24263e-10
2.57265e-10
1.21062e-10
5.46204e-11
2.36228e-11
9.7912e-12
3.88818e-12
1.47884e-12
5.3851e-13
1.87656e-13
6.25442e-14
1.99086e-14
6.34701e-15
-1.24988e-15
0
0
0
0
0
0
0
0
0
0
0
0
0
0
0
0
0
0
0
0
0
0
0
0
0
0
0
0
0
0
0
1.19975e-20
5.95814e-20
2.82929e-19
1.28542e-18
5.59017e-18
2.32805e-17
9.28738e-17
3.55021e-16
1.30072e-15
4.56854e-15
1.53855e-14
4.96894e-14
1.53919e-13
4.57357e-13
1.30378e-12
3.56597e-12
9.35885e-12
2.35703e-11
5.69738e-11
1.31924e-10
2.93227e-10
6.26784e-10
1.28605e-09
2.53308e-09
4.78979e-09
8.69522e-09
1.51551e-08
2.53607e-08
4.07475e-08
6.28618e-08
9.31165e-08
1.32442e-07
1.80877e-07
2.37196e-07
2.98674e-07
3.61118e-07
4.19242e-07
4.67347e-07
5.00229e-07
5.14101e-07
5.07308e-07
4.8065e-07
4.37234e-07
3.81868e-07
3.20197e-07
2.57758e-07
1.99197e-07
1.47779e-07
1.05241e-07
7.1941e-08
4.72025e-08
2.97253e-08
1.79651e-08
1.04195e-08
5.79878e-09
3.09645e-09
1.58629e-09
7.79548e-10
3.6744e-10
1.66092e-10
7.1987e-11
2.99102e-11
1.19109e-11
4.54478e-12
1.66109e-12
5.81329e-13
1.94722e-13
6.23608e-14
1.98207e-14
-2.39908e-15
0
0
0
0
0
0
0
0
0
0
0
0
0
0
0
0
0
0
0
0
0
0
0
0
0
0
0
0
0
0
0
3.66847e-20
1.81082e-19
8.55375e-19
3.86832e-18
1.67547e-17
6.95239e-17
2.76462e-16
1.05376e-15
3.85072e-15
1.34931e-14
4.53441e-14
1.4616e-13
4.51946e-13
1.34074e-12
3.81633e-12
1.04238e-11
2.73229e-11
6.87334e-11
1.65962e-10
3.8392e-10
8.52598e-10
1.82068e-09
3.73243e-09
7.34586e-09
1.38805e-08
2.5182e-08
4.38648e-08
7.33655e-08
1.17822e-07
1.81687e-07
2.69025e-07
3.82506e-07
5.22228e-07
6.84638e-07
8.61871e-07
1.04184e-06
1.20931e-06
1.34787e-06
1.44254e-06
1.48243e-06
1.46278e-06
1.38592e-06
1.26078e-06
1.10122e-06
9.23498e-07
7.43549e-07
5.74755e-07
4.26521e-07
3.03856e-07
2.07799e-07
1.36412e-07
8.59542e-08
5.19835e-08
3.01731e-08
1.68073e-08
8.98397e-09
4.60776e-09
2.26736e-09
1.07031e-09
4.84626e-10
2.10448e-10
8.76308e-11
3.49831e-11
1.33861e-11
4.9084e-12
1.72419e-12
5.80013e-13
1.86712e-13
5.91888e-14
-3.29206e-15
0
0
0
0
0
0
0
0
0
0
0
0
0
0
0
0
0
0
0
0
0
0
0
0
0
0
0
0
0
0
2.07736e-20
1.06651e-19
5.24034e-19
2.46536e-18
1.11092e-17
4.79625e-17
1.98448e-16
7.87079e-16
2.99296e-15
1.09137e-14
3.81674e-14
1.28034e-13
4.12022e-13
1.27211e-12
3.76862e-12
1.07134e-11
2.92278e-11
7.65279e-11
1.92319e-10
4.63931e-10
1.07232e-09
2.37959e-09
5.07713e-09
1.04002e-08
2.04545e-08
3.86256e-08
7.00345e-08
1.2193e-07
2.03834e-07
3.27206e-07
5.04367e-07
7.46551e-07
1.06111e-06
1.44829e-06
1.8982e-06
2.38903e-06
2.88731e-06
3.35086e-06
3.73427e-06
3.99613e-06
4.10632e-06
4.05174e-06
3.83882e-06
3.49233e-06
3.0506e-06
2.55858e-06
2.06037e-06
1.59299e-06
1.18247e-06
8.42675e-07
5.76513e-07
3.78633e-07
2.38709e-07
1.44457e-07
8.39083e-08
4.67778e-08
2.50273e-08
1.28497e-08
6.33056e-09
2.9924e-09
1.35699e-09
5.90291e-10
2.46277e-10
9.85332e-11
3.77978e-11
1.38991e-11
4.89822e-12
1.65388e-12
5.34747e-13
1.69136e-13
2.51411e-16
0
0
0
0
0
0
0
0
0
0
0
0
0
0
0
0
0
0
0
0
0
0
0
0
0
0
0
0
0
1.08048e-20
5.77356e-20
2.95267e-19
1.44582e-18
6.78108e-18
3.04718e-17
1.31228e-16
5.4173e-16
2.14414e-15
8.13786e-15
2.96225e-14
1.0343e-13
3.46446e-13
1.11336e-12
3.43313e-12
1.01587e-11
2.88474e-11
7.86203e-11
2.05659e-10
5.16378e-10
1.24462e-09
2.87478e-09
6.37529e-09
1.35922e-08
2.7824e-08
5.46887e-08
1.03214e-07
1.87047e-07
3.25493e-07
5.43901e-07
8.72752e-07
1.3448e-06
1.98988e-06
2.82746e-06
3.85808e-06
5.05535e-06
6.36116e-06
7.68645e-06
8.91904e-06
9.93827e-06
1.06341e-05
1.09266e-05
1.07809e-05
1.02143e-05
9.29269e-06
8.11788e-06
6.80933e-06
5.48427e-06
4.24106e-06
3.14892e-06
2.24474e-06
1.53629e-06
1.00942e-06
6.36704e-07
3.8553e-07
2.24084e-07
1.25018e-07
6.69445e-08
3.44043e-08
1.69682e-08
8.03053e-09
3.64672e-09
1.58878e-09
6.64019e-10
2.66192e-10
1.0234e-10
3.77271e-11
1.33334e-11
4.51658e-12
1.46587e-12
4.62651e-13
2.38018e-14
0
0
0
0
0
0
0
0
0
0
0
0
0
0
0
0
0
0
0
0
0
0
0
0
0
0
0
0
0
2.86856e-20
1.52814e-19
7.79363e-19
3.80677e-18
1.78137e-17
7.98824e-17
3.43362e-16
1.41496e-15
5.59126e-15
2.11892e-14
7.70227e-14
2.68583e-13
8.98551e-13
2.88438e-12
8.88482e-12
2.62643e-11
7.45135e-11
2.02902e-10
5.30329e-10
1.33057e-09
3.20476e-09
7.39778e-09
1.63968e-08
3.49354e-08
7.1472e-08
1.40403e-07
2.6485e-07
4.79745e-07
8.34482e-07
1.39388e-06
2.23582e-06
3.44397e-06
5.0944e-06
7.23673e-06
9.87203e-06
1.29326e-05
1.62699e-05
1.96561e-05
2.28047e-05
2.54076e-05
2.71839e-05
2.79297e-05
2.75563e-05
2.6108e-05
2.3753e-05
2.07514e-05
1.74082e-05
1.40227e-05
1.0846e-05
8.05485e-06
5.74361e-06
3.93224e-06
2.5847e-06
1.63109e-06
9.88165e-07
5.74706e-07
3.20853e-07
1.71945e-07
8.84443e-08
4.36638e-08
2.06878e-08
9.40622e-09
4.10379e-09
1.71785e-09
6.89865e-10
2.65749e-10
9.81857e-11
3.47876e-11
1.18174e-11
3.84792e-12
1.21265e-12
1.17117e-13
0
0
0
0
0
0
0
0
0
0
0
0
0
0
0
0
0
0
0
0
0
0
0
0
0
0
0
0
1.30545e-20
7.25208e-20
3.85581e-19
1.96294e-18
9.57175e-18
4.47204e-17
2.00246e-16
8.59536e-16
3.53748e-15
1.39613e-14
5.28484e-14
1.91896e-13
6.68468e-13
2.23421e-12
7.16536e-12
2.20525e-11
6.5136e-11
1.84653e-10
5.02447e-10
1.31235e-09
3.29049e-09
7.92043e-09
1.82742e-08
4.0485e-08
8.62102e-08
1.7628e-07
3.46128e-07
6.52629e-07
1.18167e-06
2.05465e-06
3.43076e-06
5.50124e-06
8.4713e-06
1.25274e-05
1.77909e-05
2.4264e-05
3.17798e-05
3.99729e-05
4.82845e-05
5.6011e-05
6.23967e-05
6.67531e-05
6.85801e-05
6.76611e-05
6.41047e-05
5.83238e-05
5.09566e-05
4.27513e-05
3.44416e-05
2.66438e-05
1.97915e-05
1.41163e-05
9.66742e-06
6.35681e-06
4.01321e-06
2.43251e-06
1.41551e-06
7.90766e-07
4.24073e-07
2.18309e-07
1.07874e-07
5.1162e-08
2.32884e-08
1.01733e-08
4.26456e-09
1.71531e-09
6.61942e-10
2.45052e-10
8.70161e-11
2.96335e-11
9.67663e-12
3.04178e-12
4.09357e-13
0
0
0
0
0
0
0
0
0
0
0
0
0
0
0
0
0
0
0
0
0
0
0
0
0
0
0
0
-2.38241e-20
3.85579e-20
7.41618e-19
4.68807e-18
2.31173e-17
1.07387e-16
4.80177e-16
2.05926e-15
8.46752e-15
3.33901e-14
1.26288e-13
4.58191e-13
1.59487e-12
5.32654e-12
1.70706e-11
5.25014e-11
1.5497e-10
4.39045e-10
1.19394e-09
3.11668e-09
7.81023e-09
1.87898e-08
4.33345e-08
9.59668e-08
2.04258e-07
4.17476e-07
8.19377e-07
1.54434e-06
2.79522e-06
4.85856e-06
8.11001e-06
1.30005e-05
2.00139e-05
2.95891e-05
4.20113e-05
5.72843e-05
7.50135e-05
9.43365e-05
0.000113934
0.000132149
0.0001472
0.000157463
0.000161764
0.000159591
0.000151202
0.00013757
0.000120199
0.000100852
8.12594e-05
6.28716e-05
4.67114e-05
3.33249e-05
2.28288e-05
1.50161e-05
9.48371e-06
5.75089e-06
3.34821e-06
1.87153e-06
1.00432e-06
5.17394e-07
2.55871e-07
1.21466e-07
5.53468e-08
2.42054e-08
1.01597e-08
4.09235e-09
1.58178e-09
5.86624e-10
2.08724e-10
7.12409e-11
2.33224e-11
7.34372e-12
1.2901e-12
0
0
0
0
0
0
0
0
0
0
0
0
0
0
0
0
0
0
0
0
0
0
0
0
0
0
-0.00315666
-0.00504265
-0.00871534
-0.00628451
-0.00501998
-0.00607983
-0.00867077
-0.00506621
-0.00331778
-1.08033e-05
-5.99819e-09
-3.22146e-11
3.12647e-13
1.04502e-12
3.63656e-12
1.21415e-11
3.8899e-11
1.19598e-10
3.52912e-10
9.99527e-10
2.7173e-09
7.09121e-09
1.77651e-08
4.27269e-08
9.85283e-08
2.18171e-07
4.64251e-07
9.48642e-07
1.86146e-06
3.50763e-06
6.34731e-06
1.10303e-05
1.8408e-05
2.95024e-05
4.54089e-05
6.71212e-05
9.52833e-05
0.000129901
0.000170079
0.000213859
0.000258255
0.000299508
0.000333587
0.00035682
0.000366544
0.000361608
0.000342595
0.000311712
0.000272363
0.000228541
0.00018416
0.000142507
0.000105896
7.55641e-05
5.17776e-05
3.4068e-05
2.1524e-05
1.30574e-05
7.60572e-06
4.25363e-06
2.28403e-06
1.17747e-06
5.82762e-07
2.76889e-07
1.26292e-07
5.52938e-08
2.32374e-08
9.3731e-09
3.62855e-09
1.34806e-09
4.80586e-10
1.64393e-10
5.39515e-11
1.68083e-11
3.173e-12
0
0
0
0
0
0
0
0
0
0
0
0
0
0
0
0
0
0
0
0
0
0
0
0
-0.00364513
-0.00699145
0.0013239
0.0297719
0.056632
0.0764739
0.083505
0.0785282
0.0604841
0.0342052
0.00400519
-0.0066798
-0.00404363
-1.41987e-06
-4.64517e-07
1.69893e-09
-7.2727e-12
2.66373e-11
8.51231e-11
2.61624e-10
7.71738e-10
2.18502e-09
5.9383e-09
1.54923e-08
3.88007e-08
9.3294e-08
2.15113e-07
4.76273e-07
1.01326e-06
2.07005e-06
4.06111e-06
7.651e-06
1.38423e-05
2.40503e-05
4.01292e-05
6.43032e-05
9.89556e-05
0.000146247
0.000207575
0.000282948
0.000370411
0.000465701
0.000562312
0.000652071
0.000726204
0.000776728
0.000797854
0.000787083
0.00074569