# vtk DataFile Version 2.0
Structured output generated by Nextsim
ASCII
DATASET STRUCTURED_POINTS
DIMENSIONS 101 101 1
ORIGIN 0 0 0
SPACING 0.01 0.01 0.01
POINT_DATA 10201
SCALARS interpolate DOUBLE 1
LOOKUP_TABLE default
0
0
0
0
0
0
0
0
0
0
0
0
0
0
0
0
0
0
0
0
0
0
0
0
0
0
0
0
0
0
0
0
0
0
0
0
0
0
0
0
0
0
0
0
0
0
0
0
0
0
0
0
0
0
0
0
0
0
0
0
0
0
0
0
0
0
0
0
0
0
0
0
0
0
0
0
0
0
0
0
0
0
0
0
0
0
0
0
0
0
0
0
0
0
0
0
0
0
0
0
0
0
0
0
0
0
0
0
0
0
0
0
0
0
0
0
0
0
0
0
0
0
0
0
0
0
0
0
0
0
0
0
0
0
0
0
0
0
0
0
0
0
0
0
0
0
0
0
0
0
0
0
0
0
0
0
0
0
0
0
0
0
0
0
0
0
0
0
0
0
0
0
0
0
0
0
0
0
0
0
0
0
0
0
0
0
0
0
0
0
0
0
0
0
0
0
0
0
0
0
0
0
0
0
0
0
0
0
0
0
0
0
0
0
0
0
0
0
0
0
0
0
0
0
0
0
0
0
0
0
0
0
0
0
0
0
0
0
0
0
0
0
0
0
0
0
0
0
0
0
0
0
0
0
0
0
0
0
0
0
0
0
0
0
0
0
0
0
0
0
0
0
0
0
0
0
0
0
0
0
0
0
0
0
0
0
0
0
0
0
0
0
0
0
0
0
0
0
0
0
0
0
0
0
0
0
0
0
0
0
0
0
0
0
0
0
0
0
0
0
0
0
0
0
0
0
0
0
0
0
0
0
0
0
0
0
0
0
0
0
0
0
0
0
0
0
0
0
0
0
0
0
0
0
0
0
0
0
0
0
0
0
0
0
0
0
0
0
0
1.1735e-20
1.4025e-20
0
0
0
0
0
0
0
0
0
0
0
0
0
0
0
0
0
0
0
0
0
0
0
0
0
0
0
0
0
0
0
0
0
0
0
0
0
0
0
0
0
0
0
0
0
0
0
0
0
0
0
0
0
0
0
0
0
0
0
0
0
0
0
0
0
0
0
0
0
0
0
0
0
0
0
0
0
0
0
0
0
0
0
0
0
0
0
0
0
0
0
0
0
0
0
1.2682e-20
3.80354e-20
9.93897e-20
2.21139e-19
3.8496e-19
4.48429e-19
2.59947e-19
8.79823e-20
5.02e-20
1.61255e-20
0
0
0
0
0
0
0
0
0
0
0
0
0
0
0
0
0
0
0
0
0
0
0
0
0
0
0
0
0
0
0
0
0
0
0
0
0
0
0
0
0
0
0
0
0
0
0
0
0
0
0
0
0
0
0
0
0
0
0
0
0
0
0
0
0
0
0
0
0
0
0
0
0
0
0
0
0
0
0
0
0
0
0
0
0
0
0
0
0
3.09045e-20
1.3554e-19
4.70525e-19
1.33612e-18
3.3151e-18
7.06249e-18
1.18756e-17
1.34763e-17
7.67282e-18
2.52381e-18
1.41803e-18
4.45267e-19
2.17107e-19
1.58239e-20
0
0
0
0
0
0
0
0
0
0
0
0
0
0
0
0
0
0
0
0
0
0
0
0
0
0
0
0
0
0
0
0
0
0
0
0
0
0
0
0
0
0
0
0
0
0
0
0
0
0
0
0
0
0
0
0
0
0
0
0
0
0
0
0
0
0
0
0
0
0
0
0
0
0
0
0
0
0
0
0
0
0
0
0
0
3.35803e-20
2.20481e-19
1.17472e-18
4.96116e-18
1.6438e-17
4.41537e-17
1.03856e-16
2.11557e-16
3.43266e-16
3.79273e-16
2.12188e-16
6.80413e-17
3.76611e-17
1.15908e-17
5.59424e-18
4.12789e-19
0
0
0
0
0
0
0
0
0
0
0
0
0
0
0
0
0
0
0
0
0
0
0
0
0
0
0
0
0
0
0
0
0
0
0
0
0
0
0
0
0
0
0
0
0
0
0
0
0
0
0
0
0
0
0
0
0
0
0
0
0
0
0
0
0
0
0
0
0
0
0
0
0
0
0
0
0
0
0
0
0
0
0
1.82629e-20
1.65707e-19
1.27323e-18
8.11483e-18
4.18527e-17
1.70224e-16
5.38395e-16
1.36689e-15
3.04329e-15
5.91937e-15
9.25846e-15
9.95507e-15
5.47543e-15
1.7178e-15
9.37086e-16
2.83534e-16
1.35465e-16
1.01483e-17
3.58338e-20
0
0
0
0
0
0
0
0
0
0
0
0
0
0
0
0
0
0
0
0
0
0
0
0
0
0
0
0
0
0
0
0
0
0
0
0
0
0
0
0
0
0
0
0
0
0
0
0
0
0
0
0
0
0
0
0
0
0
0
0
0
0
0
0
0
0
0
0
0
0
0
0
0
0
0
0
0
0
0
0
0
6.69142e-20
6.85546e-19
6.0445e-18
4.5095e-17
2.78713e-16
1.39076e-15
5.44743e-15
1.64504e-14
3.94494e-14
8.30146e-14
1.5397e-13
2.31904e-13
2.42539e-13
1.31228e-13
4.04446e-14
2.17566e-14
6.49417e-15
3.07171e-15
2.34378e-16
8.95267e-19
0
0
0
0
0
0
0
0
0
0
0
0
0
0
0
0
0
0
0
0
0
0
0
0
0
0
0
0
0
0
0
0
0
0
0
0
0
0
0
0
0
0
0
0
0
0
0
0
0
0
0
0
0
0
0
0
0
0
0
0
0
0
0
0
0
0
0
0
0
0
0
0
0
0
0
0
0
0
0
1.63723e-20
2.11767e-19
2.41473e-18
2.40066e-17
2.05284e-16
1.48448e-15
8.88549e-15
4.28624e-14
1.61651e-13
4.66192e-13
1.05546e-12
2.09627e-12
3.70252e-12
5.36461e-12
5.45471e-12
2.90548e-12
8.83862e-13
4.69165e-13
1.38701e-13
6.49602e-14
5.06673e-15
2.108e-17
7.80948e-20
0
0
0
0
0
0
0
0
0
0
0
0
0
0
0
0
0
0
0
0
0
0
0
0
0
0
0
0
0
0
0
0
0
0
0
0
0
0
0
0
0
0
0
0
0
0
0
0
0
0
0
0
0
0
0
0
0
0
0
0
0
0
0
0
0
0
0
0
0
0
0
0
0
0
0
0
0
4.15433e-20
5.86015e-19
7.34716e-18
8.11334e-17
7.80632e-16
6.45762e-15
4.51623e-14
2.61327e-13
1.21722e-12
4.41829e-12
1.2171e-11
2.60054e-11
4.86829e-11
8.1778e-11
1.13869e-10
1.12516e-10
5.90586e-11
1.78304e-11
9.34703e-12
2.74928e-12
1.27531e-12
1.02102e-13
4.66293e-16
1.87125e-18
0
0
0
0
0
0
0
0
0
0
0
0
0
0
0
0
0
0
0
0
0
0
0
0
0
0
0
0
0
0
0
0
0
0
0
0
0
0
0
0
0
0
0
0
0
0
0
0
0
0
0
0
0
0
0
0
0
0
0
0
0
0
0
0
0
0
0
0
0
0
0
0
0
0
0
0
9.4008e-20
1.43438e-18
1.9574e-17
2.37097e-16
2.52695e-15
2.34502e-14
1.87054e-13
1.26151e-12
7.03993e-12
3.161e-11
1.10349e-10
2.90392e-10
5.85435e-10
1.0317e-09
1.64622e-09
2.20071e-09
2.11248e-09
1.09404e-09
3.29917e-10
1.70981e-10
5.03e-11
2.31186e-11
1.90893e-12
9.65485e-15
4.22552e-17
0
0
0
0
0
0
0
0
0
0
0
0
0
0
0
0
0
0
0
0
0
0
0
0
0
0
0
0
0
0
0
0
0
0
0
0
0
0
0
0
0
0
0
0
0
0
0
0
0
0
0
0
0
0
0
0
0
0
0
0
0
0
0
0
0
0
0
0
0
0
0
0
0
0
1.08477e-20
1.91713e-19
3.13927e-18
4.62493e-17
6.08252e-16
7.08901e-15
7.26063e-14
6.47047e-13
4.95591e-12
3.21082e-11
1.72261e-10
7.43902e-10
2.49463e-09
6.2712e-09
1.19277e-08
1.97649e-08
2.99219e-08
3.83681e-08
3.577e-08
1.83087e-08
5.55669e-09
2.85094e-09
8.44005e-10
3.84577e-10
3.2932e-11
1.86357e-13
8.96341e-16
0
0
0
0
0
0
0
0
0
0
0
0
0
0
0
0
0
0
0
0
0
0
0
0
0
0
0
0
0
0
0
0
0
0
0
0
0
0
0
0
0
0
0
0
0
0
0
0
0
0
0
0
0
0
0
0
0
0
0
0
0
0
0
0
0
0
0
0
0
0
0
0
0
2.01941e-20
3.63787e-19
6.21311e-18
9.80715e-17
1.38935e-15
1.75288e-14
1.95574e-13
1.91453e-12
1.62933e-11
1.19176e-10
7.38026e-10
3.79048e-09
1.56931e-08
5.04605e-08
1.21146e-07
2.17383e-07
3.38352e-07
4.85465e-07
5.96595e-07
5.40154e-07
2.73875e-07
8.44187e-08
4.29565e-08
1.28903e-08
5.82765e-09
5.20893e-10
3.33743e-12
1.77965e-14
0
0
0
0
0
0
0
0
0
0
0
0
0
0
0
0
0
0
0
0
0
0
0
0
0
0
0
0
0
0
0
0
0
0
0
0
0
0
0
0
0
0
0
0
0
0
0
0
0
0
0
0
0
0
0
0
0
0
0
0
0
0
0
0
0
0
0
0
0
0
0
0
3.59752e-20
6.60165e-19
1.14821e-17
1.88806e-16
2.86076e-15
3.87849e-14
4.66877e-13
4.95633e-12
4.60633e-11
3.71698e-10
2.57786e-09
1.51577e-08
7.40994e-08
2.9281e-07
9.00282e-07
2.06282e-06
3.49229e-06
5.10116e-06
6.93005e-06
8.15628e-06
7.17322e-06
3.61448e-06
1.14403e-06
5.78786e-07
1.7757e-07
7.97427e-08
7.49737e-09
5.51543e-11
3.2936e-13
0
0
0
0
0
0
0
0
0
0
0
0
0
0
0
0
0
0
0
0
0
0
0
0
0
0
0
0
0
0
0
0
0
0
0
0
0
0
0
0
0
0
0
0
0
0
0
0
0
0
0
0
0
0
0
0
0
0
0
0
0
0
0
0
0
0
0
0
0
0
0
6.14618e-20
1.14871e-18
2.03401e-17
3.40343e-16
5.36614e-15
7.76853e-14
1.0026e-12
1.14448e-11
1.14785e-10
1.00463e-09
7.61799e-09
4.96299e-08
2.74605e-07
1.26773e-06
4.75146e-06
1.39107e-05
3.03796e-05
4.85291e-05
6.64757e-05
8.5442e-05
9.62605e-05
8.22902e-05
4.13998e-05
1.36398e-05
6.88431e-06
2.182e-06
9.74926e-07
9.73148e-08
8.35761e-10
5.65488e-12
0
0
0
0
0
0
0
0
0
0
0
0
0
0
0
0
0
0
0
0
0
0
0
0
0
0
0
0
0
0
0
0
0
0
0
0
0
0
0
0
0
0
0
0
0
0
0
0
0
0
0
0
0
0
0
0
0
0
0
0
0
0
0
0
0
0
0
0
0
0
1.00388e-19
1.91233e-18
3.44926e-17
5.87539e-16
9.42388e-15
1.41867e-13
1.9528e-12
2.38599e-11
2.56626e-10
2.41303e-09
1.97049e-08
1.38888e-07
8.39747e-07
4.31931e-06
1.86246e-05
6.56114e-05
0.000181729
0.000377351
0.000568782
0.000730324
0.000887666
0.000957179
0.000796543
0.000402914
0.000140569
7.11274e-05
2.35903e-05
1.05115e-05
1.12667e-06
1.15255e-08
8.95795e-11
0
0
0
0
0
0
0
0
0
0
0
0
0
0
0
0
0
0
0
0
0
0
0
0
0
0
0
0
0
0
0
0
0
0
0
0
0
0
0
0
0
0
0
0
0
0
0
0
0
0
0
0
0
0
0
0
0
0
0
0
0
0
0
0
0
0
0
0
0
1.54877e-19
3.01247e-18
5.54433e-17
9.62952e-16
1.57357e-14
2.41116e-13
3.45117e-12
4.49553e-11
5.17313e-10
5.21076e-09
4.55882e-08
3.43946e-07
2.22504e-06
1.22954e-05
5.78224e-05
0.000229238
0.000748912
0.00194227
0.0038174
0.00542832
0.00653353
0.00750939
0.00775455
0.00630034
0.00323962
0.00122363
0.000625231
0.000220492
9.83224e-05
1.1478e-05
1.43352e-07
1.30089e-09
0
0
0
0
0
0
0
0
0
0
0
0
0
0
0
0
0
0
0
0
0
0
0
0
0
0
0
0
0
0
0
0
0
0
0
0
0
0
0
0
0
0
0
0
0
0
0
0
0
0
0
0
0
0
0
0
0
0
0
0
0
0
0
0
0
0
0
1.04919e-20
2.20394e-19
4.38875e-18
8.26418e-17
1.46749e-15
2.44974e-14
3.83108e-13
5.59056e-12
7.57805e-11
9.3e-10
1.00336e-08
9.41705e-08
7.61603e-07
5.25993e-06
3.08126e-05
0.000152741
0.000642059
0.00228709
0.00678708
0.0161969
0.0298738
0.0400453
0.0452207
0.0491973
0.0487476
0.0388971
0.0207082
0.00871934
0.0045498
0.00174132
0.000781215
0.000101145
1.59065e-06
1.71878e-08
0
0
0
0
0
0
0
0
0
0
0
0
0
0
0
0
0
0
0
0
0
0
0
0
0
0
0
0
0
0
0
0
0
0
0
0
0
0
0
0
0
0
0
0
0
0
0
0
0
0
0
0
0
0
0
0
0
0
0
0
0
0
0
0
0
0
1.29139e-20
2.78706e-19
5.69944e-18
1.10157e-16
2.00658e-15
3.4338e-14
5.50057e-13
8.21436e-12
1.13824e-10
1.45555e-09
1.676e-08
1.68904e-07
1.47161e-06
1.09508e-05
6.87287e-05
0.00035999
0.00156736
0.00571364
0.0176661
0.0460616
0.0980104
0.166598
0.210039
0.223208
0.230626
0.220444
0.174965
0.0996723
0.0486577
0.0264098
0.0112648
0.00512782
0.000754081
1.5535e-05
2.04736e-07
0
0
0
0
0
0
0
0
0
0
0
0
0
0
0
0
0
0
0
0
0
0
0
0
0
0
0
0
0
0
0
0
0
0
0
0
0
0
0
0
0
0
0
0
0
0
0
0
0
0
0
0
0
0
0
0
0
0
0
0
0
0
0
0
0
1.33413e-20
2.96693e-19
6.25008e-18
1.24397e-16
2.33251e-15
4.1069e-14
6.76522e-13
1.03825e-11
1.47735e-10
1.93817e-09
2.32904e-08
2.50608e-07
2.3517e-06
1.89726e-05
0.000129552
0.00073555
0.00341098
0.0127687
0.0388314
0.0988781
0.214288
0.382165
0.572789
0.674398
0.681072
0.675404
0.632373
0.515014
0.334407
0.199175
0.116116
0.0571485
0.0267765
0.004619
0.000131289
2.17437e-06
1.15101e-20
1.00986e-20
0
0
0
0
0
0
0
0
0
0
0
0
0
0
0
0
0
0
0
0
0
0
0
0
0
0
0
0
0
0
0
0
0
0
0
0
0
0
0
0
0
0
0
0
0
0
0
0
0
0
0
0
0
0
0
0
0
0
0
0
0
0
1.06605e-20
2.44976e-19
5.33183e-18
1.09624e-16
2.12295e-15
3.85972e-14
6.5635e-13
1.03952e-11
1.5259e-10
2.06417e-09
2.55619e-08
2.8749e-07
2.87903e-06
2.50823e-05
0.000186994
0.00116987
0.00599503
0.0244615
0.0773079
0.187525
0.363992
0.600217
0.798578
0.932596
0.999492
0.99716
0.986871
0.951471
0.8624
0.711466
0.542008
0.359904
0.213333
0.105593
0.022342
0.000939282
2.03067e-05
6.79496e-20
5.93794e-20
4.98399e-20
4.02115e-20
3.11847e-20
2.32454e-20
1.66543e-20
1.14682e-20
0
0
0
0
0
0
0
0
0
0
0
0
0
0
0
0
0
0
0
0
0
0
0
0
0
0
0
0
0
0
0
0
0
0
0
0
0
0
0
0
0
0
0
0
0
0
0
0
0
0
0
0
0
0
0
0
1.36158e-19
3.07094e-18
6.54319e-17
1.31321e-15
2.47448e-14
4.36139e-13
7.16007e-12
1.08955e-10
1.5281e-09
1.96225e-08
2.28887e-07
2.40225e-06
2.23225e-05
0.000180124
0.00123851
0.00708541
0.0326907
0.1168
0.307547
0.572244
0.780705
0.925891
1
0.999999
0.999992
0.99994
0.99959
0.99763
0.988678
0.956746
0.873077
0.722967
0.533837
0.293448
0.0809187
0.0055263
0.000163864
3.88242e-19
3.37773e-19
2.82122e-19
2.26512e-19
1.74813e-19
1.29679e-19
9.24628e-20
6.33657e-20
4.17367e-20
2.6421e-20
1.60744e-20
0
0
0
0
0
0
0
0
0
0
0
0
0
0
0
0
0
0
0
0
0
0
0
0
0
0
0
0
0
0
0
0
0
0
0
0
0
0
0
0
0
0
0
0
0
0
0
0
0
0
0
0
3.74415e-20
8.79063e-19
1.95063e-17
4.0793e-16
8.01427e-15
1.47383e-13
2.52671e-12
4.01928e-11
5.90024e-10
7.94268e-09
9.7317e-08
1.07558e-06
1.06072e-05
9.20735e-05
0.000691386
0.00439327
0.0229488
0.0947737
0.293422
0.636238
0.918425
1
1
1
1
1
0.999999
0.999993
0.999943
0.999586
0.997412
0.986485
0.942757
0.811173
0.538872
0.206349
0.0257174
0.00111657
2.14586e-18
1.85844e-18
1.5449e-18
1.23453e-18
9.48285e-19
7.00162e-19
4.96899e-19
3.3895e-19
2.22223e-19
1.40029e-19
8.48026e-20
4.93576e-20
2.76084e-20
1.4841e-20
0
0
0
0
0
0
0
0
0
0
0
0
0
0
0
0
0
0
0
0
0
0
0
0
0
0
0
0
0
0
0
0
0
0
0
0
0
0
0
0
0
0
0
0
0
0
0
0
0
6.37379e-20
1.51137e-18
3.38708e-17
7.15328e-16
1.41904e-14
2.63447e-13
4.55797e-12
7.31359e-11
1.08225e-09
1.46725e-08
1.80821e-07
2.00662e-06
1.98204e-05
0.000171229
0.00126571
0.00781097
0.038966
0.150394
0.422989
0.804863
1
1
1
1
1
1
1
0.999999
0.999989
0.999909
0.999318
0.995677
0.977405
0.906423
0.70906
0.367415
0.0898783
0.00622801
1.14596e-17
9.88845e-18
8.18251e-18
6.50879e-18
4.97688e-18
3.658e-18
2.58433e-18
1.75491e-18
1.1454e-18
7.18527e-19
4.33211e-19
2.51025e-19
1.39793e-19
7.48159e-20
3.848e-20
1.90194e-20
0
0
0
0
0
0
0
0
0
0
0
0
0
0
0
0
0
0
0
0
0
0
0
0
0
0
0
0
0
0
0
0
0
0
0
0
0
0
0
0
0
0
0
0
0
0
0
2.21089e-19
5.29545e-18
1.19544e-16
2.53542e-15
5.03384e-14
9.31737e-13
1.60025e-11
2.53639e-10
3.68659e-09
4.87702e-08
5.81982e-07
6.19663e-06
5.80812e-05
0.000470989
0.0032303
0.0181898
0.0807628
0.267319
0.612141
0.910207
1
1
1
1
1
1
1
1
0.999996
0.999964
0.999716
0.998099
0.989368
0.951906
0.831324
0.565508
0.222295
0.0272226
5.93514e-17
5.08731e-17
4.191e-17
3.31901e-17
2.52667e-17
1.84894e-17
1.30054e-17
8.79291e-18
5.71404e-18
3.56897e-18
2.1425e-18
1.23614e-18
6.85441e-19
3.65277e-19
1.87074e-19
9.20734e-20
4.35488e-20
1.97939e-20
0
0
0
0
0
0
0
0
0
0
0
0
0
0
0
0
0
0
0
0
0
0
0
0
0
0
0
0
0
0
0
0
0
0
0
0
0
0
0
0
0
0
0
0
1.40167e-20
3.59471e-19
8.71358e-18
1.99062e-16
4.27198e-15
8.5806e-14
1.60632e-12
2.78915e-11
4.46687e-10
6.55493e-09
8.74522e-08
1.05079e-06
1.12402e-05
0.000105499
0.00084986
0.0057119
0.0309787
0.129544
0.391838
0.788316
1
1
1
1
1
1
1
1
1
0.999999
0.999994
0.999942
0.999532
0.996797
0.981958
0.919671
0.732831
0.385412
0.0875067
2.96402e-16
2.53019e-16
2.07548e-16
1.63663e-16
1.24061e-16
9.03983e-17
6.33161e-17
4.2627e-17
2.75843e-17
1.71567e-17
1.02563e-17
5.89276e-18
3.25396e-18
1.72688e-18
8.80757e-19
4.31705e-19
2.03351e-19
9.205e-20
4.00417e-20
1.67381e-20
0
0
0
0
0
0
0
0
0
0
0
0
0
0
0
0
0
0
0
0
0
0
0
0
0
0
0
0
0
0
0
0
0
0
0
0
0
0
0
0
0
0
4.85339e-20
1.2647e-18
3.10601e-17
7.16627e-16
1.54768e-14
3.11581e-13
5.81981e-12
1.00303e-10
1.58494e-09
2.27885e-08
2.95456e-07
3.4163e-06
3.47511e-05
0.00030564
0.00227372
0.0138933
0.0669083
0.239387
0.585533
0.901161
1
1
1
1
1
1
1
1
1
1
0.999998
0.999977
0.999808
0.998603
0.991522
0.958432
0.842476
0.565553
0.188762
1.43103e-15
1.21633e-15
9.93608e-16
7.80278e-16
5.89034e-16
4.27441e-16
2.98156e-16
1.9991e-16
1.28835e-16
7.98056e-17
4.75141e-17
2.71889e-17
1.4953e-17
7.90366e-18
4.01493e-18
1.96006e-18
9.19594e-19
4.14618e-19
1.79646e-19
7.47989e-20
2.99273e-20
1.15023e-20
0
0
0
0
0
0
0
0
0
0
0
0
0
0
0
0
0
0
0
0
0
0
0
0
0
0
0
0
0
0
0
0
0
0
0
0
0
0
0
0
6.5618e-20
1.72315e-18
4.26473e-17
9.91569e-16
2.1579e-14
4.37729e-13
8.23703e-12
1.42993e-10
2.27517e-09
3.29243e-08
4.29324e-07
4.98747e-06
5.08891e-05
0.000447826
0.00332258
0.0201535
0.0955043
0.330359
0.752086
1
1
1
1
1
1
1
1
1
1
1
1
0.999995
0.999953
0.999578
0.996834
0.980555
0.906727
0.673678
0.250294
6.67725e-15
5.65075e-15
4.59762e-15
3.59609e-15
2.70389e-15
1.95431e-15
1.3578e-15
9.06777e-16
5.82077e-16
3.59141e-16
2.12981e-16
1.21396e-16
6.65026e-17
3.50138e-17
1.77172e-17
8.61589e-18
4.02665e-18
1.8085e-18
7.80576e-19
3.23764e-19
1.29045e-19
4.94112e-20
1.81009e-20
0
0
0
0
0
0
0
0
0
0
0
0
0
0
0
0
0
0
0
0
0
0
0
0
0
0
0
0
0
0
0
0
0
0
0
0
0
0
0
3.42838e-20
9.23733e-19
2.34866e-17
5.61669e-16
1.25878e-14
2.63289e-13
5.1153e-12
9.18069e-11
1.51231e-09
2.26906e-08
3.07248e-07
3.7126e-06
3.94739e-05
0.000362723
0.00281284
0.0178213
0.0880808
0.316769
0.744019
0.999995
1
1
1
1
1
1
1
1
1
1
1
0.999997
0.999963
0.999654
0.997286
0.982616
0.913245
0.685512
0.257285
3.00886e-14
2.5366e-14
2.05589e-14
1.60185e-14
1.19979e-14
8.63852e-15
5.97875e-15
3.97749e-15
2.54346e-15
1.56332e-15
9.23564e-16
5.24413e-16
2.86193e-16
1.50111e-16
7.56706e-17
3.66601e-17
1.70688e-17
7.63748e-18
3.28415e-18
1.35712e-18
5.38913e-19
2.05596e-19
7.50732e-20
2.51867e-20
1.13486e-20
0
0
0
0
0
0
0
0
0
0
0
0
0
0
0
0
0
0
0
0
0
0
0
0
0
0
0
0
0
0
0
0
0
0
0
0
0
1.51873e-20
4.26338e-19
1.13164e-17
2.82774e-16
6.62652e-15
1.45017e-13
2.94945e-12
5.54409e-11
9.56858e-10
1.50464e-08
2.13571e-07
2.70546e-06
3.01556e-05
0.000290432
0.00235959
0.0156498
0.0808485
0.302946
0.735533
0.999883
1
1
1
1
1
1
1
1
1
1
1
0.999997
0.999968
0.999693
0.997508
0.983547
0.915866
0.689605
0.259501
1.3097e-13
1.10006e-13
8.88277e-14
6.89531e-14
5.14543e-14
3.69096e-14
2.54506e-14
1.68688e-14
1.07471e-14
6.58121e-15
3.87365e-15
2.19142e-15
1.19155e-15
6.22687e-16
3.12746e-16
1.50963e-16
7.00318e-17
3.1222e-17
1.3377e-17
5.50783e-18
2.17929e-18
8.28448e-19
3.01555e-19
1.01095e-19
4.57036e-20
0
0
0
0
0
0
0
0
0
0
0
0
0
0
0
0
0
0
0
0
0
0
0
0
0
0
0
0
0
0
0
0
0
0
0
0
0
0
1.86839e-19
5.19634e-18
1.36291e-16
3.35384e-15
7.70916e-14
1.64719e-12
3.25321e-11
5.90003e-10
9.74967e-09
1.4543e-07
1.93589e-06
2.26706e-05
0.000229324
0.00195575
0.0136042
0.0735957
0.287868
0.724042
0.997903
0.99999
1
1
1
1
1
1
1
1
1
1
0.999996
0.999961
0.999624
0.996979
0.980477
0.903808
0.663394
0.242745
5.50611e-13
4.60823e-13
3.70773e-13
2.86784e-13
2.13237e-13
1.52413e-13
1.04718e-13
6.91595e-14
4.39038e-14
2.67894e-14
1.57118e-14
8.85686e-15
4.79863e-15
2.49879e-15
1.25058e-15
6.01518e-16
2.78059e-16
1.23529e-16
5.27396e-17
2.16388e-17
8.53193e-18
3.23217e-18
1.1729e-18
3.92946e-19
1.78259e-19
0
0
0
0
0
0
0
0
0
0
0
0
0
0
0
0
0
0
0
0
0
0
0
0
0
0
0
0
0
0
0
0
0
0
0
0
0
0
7.90956e-20
2.27416e-18
6.26075e-17
1.62e-15
3.91648e-14
8.80137e-13
1.8281e-11
3.4862e-10
6.05597e-09
9.49227e-08
1.32697e-06
1.63053e-05
0.000172843
0.00154287
0.0112249
0.063464
0.259229
0.680098
0.974291
0.999796
0.999999
1
1
1
1
1
1
1
1
0.999999
0.999991
0.999914
0.999245
0.994357
0.966458
0.85268
0.559918
0.178661
2.23536e-12
1.8644e-12
1.4949e-12
1.15227e-12
8.53811e-13
6.0816e-13
4.16403e-13
2.74057e-13
1.73375e-13
1.05426e-13
6.16179e-14
3.46148e-14
1.86897e-14
9.6988e-15
4.83731e-15
2.31873e-15
1.06819e-15
4.72928e-16
2.01224e-16
8.22801e-17
3.2332e-17
1.22073e-17
4.41655e-18
1.47875e-18
6.73224e-19
0
0
0
0
0
0
0
0
0
0
0
0
0
0
0
0
0
0
0
0
0
0
0
0
0
0
0
0
0
0
0
0
0
0
0
0
0
0
3.0999e-20
7.52548e-19
2.08328e-17
5.53846e-16
1.37815e-14
3.18651e-13
6.80655e-12
1.33453e-10
2.38364e-09
3.84385e-08
5.53585e-07
7.02551e-06
7.72528e-05
0.00071931
0.00549901
0.0331004
0.147662
0.446778
0.824292
0.996907
0.999978
0.999994
0.999997
0.999999
0.999999
1
1
0.999999
0.999999
0.999993
0.999959
0.999732
0.998084
0.98744
0.932785
0.741805
0.36335
0.0652066
8.76226e-12
7.28391e-12
5.82095e-12
4.4719e-12
3.30255e-12
2.34453e-12
1.59993e-12
1.04949e-12
6.6172e-13
4.01034e-13
2.3361e-13
1.30797e-13
7.03862e-14
3.64046e-14
1.80965e-14
8.64563e-15
3.96966e-15
1.7517e-15
7.42856e-16
3.0275e-16
1.18574e-16
4.46231e-17
1.60973e-17
5.38685e-18
2.46148e-18
0
0
0
0
0
0
0
0
0
0
0
0
0
0
0
0
0
0
0
0
0
0
0
0
0
0
0
0
0
0
0
0
0
0
0
0
0
0
2.962e-20
1.59613e-19
2.1441e-18
4.76632e-17
1.10401e-15
2.41491e-14
4.9213e-13
9.33652e-12
1.65295e-10
2.74057e-09
4.2641e-08
6.20372e-07
8.32586e-06
9.87051e-05
0.000986461
0.00802291
0.0505554
0.22865
0.653123
0.96756
0.999611
0.999901
0.999943
0.999985
0.999991
0.999997
0.999995
0.999993
0.999984
0.99994
0.999738
0.99889
0.994475
0.972215
0.873682
0.59124
0.194401
3.8469e-11
3.31579e-11
2.74758e-11
2.18872e-11
1.67609e-11
1.23385e-11
8.73115e-12
5.93908e-12
3.88325e-12
2.44057e-12
1.47434e-12
8.56067e-13
4.77762e-13
2.56272e-13
1.3212e-13
6.54651e-14
3.11755e-14
1.42683e-14
6.276e-15
2.65299e-15
1.07776e-15
4.20766e-16
1.57846e-16
5.67793e-17
1.8992e-17
8.71119e-18
0
0
0
0
0
0
0
0
0
0
0
0
0
0
0
0
0
0
0
0
0
0
0
0
0
0
0
0
0
0
0
0
0
0
0
0
0
2.97862e-20
1.04019e-19
3.54593e-19
1.30009e-18
8.34169e-18
1.40595e-16
3.38353e-15
8.23084e-14
1.90128e-12
4.10004e-11
8.14874e-10
1.47293e-08
2.38696e-07
3.41365e-06
4.22506e-05
0.000441812
0.00378466
0.0254309
0.125738
0.41519
0.806983
0.994756
0.998581
0.999199
0.999784
0.999875
0.999957
0.999939
0.999911
0.999835
0.999499
0.998172
0.994286
0.980341
0.93349
0.765691
0.388592
0.0717754
1.40945e-10
1.21116e-10
1.00054e-10
7.94584e-11
6.06609e-11
4.45175e-11
3.14049e-11
2.1296e-11
1.38812e-11
8.69705e-12
5.23754e-12
3.03168e-12
1.68669e-12
9.01927e-13
4.63539e-13
2.28967e-13
1.08699e-13
4.95943e-14
2.17466e-14
9.16419e-15
3.71137e-15
1.44446e-15
5.4021e-16
1.93782e-16
6.47917e-17
2.98348e-17
0
0
0
0
0
0
0
0
0
0
0
0
0
0
0
0
0
0
0
0
0
0
0
0
0
0
0
0
0
0
0
0
0
0
0
0
2.99001e-20
1.08621e-19
3.80115e-19
1.28152e-18
4.16938e-18
1.32925e-17
4.68301e-17
3.05916e-16
4.85584e-15
1.01551e-13
2.10719e-12
4.16994e-11
7.88505e-10
1.42931e-08
2.46511e-07
3.85635e-06
5.20945e-05
0.000591813
0.00546231
0.038934
0.197736
0.621975
0.950022
0.984423
0.991337
0.99745
0.998545
0.99948
0.999316
0.999087
0.998551
0.996379
0.988588
0.971288
0.925371
0.833179
0.599308
0.211499
5.59152e-10
4.98335e-10
4.26973e-10
3.51687e-10
2.78471e-10
2.11965e-10
1.55094e-10
1.09086e-10
7.3752e-11
4.79295e-11
2.99397e-11
1.79762e-11
1.03741e-11
5.75434e-12
3.06779e-12
1.57193e-12
7.74127e-13
3.664e-13
1.6667e-13
7.28632e-14
3.06129e-14
1.23606e-14
4.7963e-15
1.78842e-15
6.39801e-16
2.13848e-16
9.88679e-17
0
0
0
0
0
0
0
0
0
0
0
0
0
0
0
0
0
0
0
0
0
0
0
0
0
0
0
0
0
0
0
0
0
0
0
2.75683e-20
1.0438e-19
3.8066e-19
1.33704e-18
4.52276e-18
1.47333e-17
4.62326e-17
1.40201e-16
4.24832e-16
1.69138e-15
1.86527e-14
4.22712e-13
1.03274e-11
2.35954e-10
4.90225e-09
9.11705e-08
1.49215e-06
2.10748e-05
0.000250858
0.00243664
0.01844
0.10135
0.361547
0.711392
0.880319
0.933078
0.976823
0.986829
0.994918
0.993766
0.992316
0.989377
0.978451
0.94211
0.879876
0.751112
0.586032
0.336507
0.079006
1.91287e-09
1.70006e-09
1.45253e-09
1.19305e-09
9.42005e-10
7.14992e-10
5.21668e-10
3.65867e-10
2.4665e-10
1.59831e-10
9.95523e-11
5.96002e-11
3.42959e-11
1.89682e-11
1.00831e-11
5.15159e-12
2.52963e-12
1.19381e-12
5.41468e-13
2.36026e-13
9.88766e-14
3.98075e-14
1.54017e-14
5.72634e-15
2.04319e-15
6.82731e-16
3.16952e-16
0
0
0
0
0
0
0
0
0
0
0
0
0
0
0
0
0
0
0
0
0
0
0
0
0
0
0
0
0
0
0
0
0
0
2.33319e-20
9.20939e-20
3.501e-19
1.28175e-18
4.5189e-18
1.5341e-17
5.0146e-17
1.57818e-16
4.78198e-16
1.39557e-15
3.93877e-15
1.11542e-14
4.0876e-14
3.59935e-13
6.19342e-12
1.23364e-10
2.56265e-09
5.10474e-08
8.9455e-07
1.34886e-05
0.000170677
0.00175015
0.0138153
0.0773883
0.267501
0.460464
0.677839
0.851496
0.913937
0.961622
0.956063
0.949673
0.938353
0.899795
0.779668
0.626883
0.402932
0.205423
0.0842269
6.84652e-09
6.31261e-09
5.59538e-09
4.76787e-09
3.90557e-09
3.07539e-09
2.32789e-09
1.69381e-09
1.18468e-09
7.96452e-10
5.14678e-10
3.19683e-10
1.90857e-10
1.09519e-10
6.04032e-11
3.20193e-11
1.63132e-11
7.98796e-12
3.7592e-12
1.70024e-12
7.39055e-13
3.08736e-13
1.23947e-13
4.78211e-14
1.77301e-14
6.30998e-15
2.10802e-15
9.82789e-16
0
0
0
0
0
0
0
0
0
0
0
0
0
0
0
0
0
0
0
0
0
0
0
0
0
0
0
0
0
0
0
0
0
1.81173e-20
7.45705e-20
2.95584e-19
1.12825e-18
4.14681e-18
1.46749e-17
4.99994e-17
1.64004e-16
5.17871e-16
1.57413e-15
4.60562e-15
1.29705e-14
3.51654e-14
9.19052e-14
2.33317e-13
5.93198e-13
1.58746e-12
5.08541e-12
5.83876e-11
1.2752e-09
2.73911e-08
5.20599e-07
8.51801e-06
0.000116893
0.00129861
0.0110837
0.0668302
0.245529
0.428602
0.64092
0.794354
0.779405
0.763543
0.738609
0.660435
0.429799
0.223105
0.0927123
2.29502e-08
2.28376e-08
2.18478e-08
2.00931e-08
1.77648e-08
1.50987e-08
1.23361e-08
9.68865e-09
7.3146e-09
5.30826e-09
3.70288e-09
2.48283e-09
1.60017e-09
9.91267e-10
5.9022e-10
3.37776e-10
1.85793e-10
9.82222e-11
4.99071e-11
2.43715e-11
1.14383e-11
5.1594e-12
2.23658e-12
9.31783e-13
3.73064e-13
1.43544e-13
5.30762e-14
1.88421e-14
6.29371e-15
2.94696e-15
0
0
0
0
0
0
0
0
0
0
0
0
0
0
0
0
0
0
0
0
0
0
0
0
0
0
0
0
0
0
0
0
1.2901e-20
5.53881e-20
2.28985e-19
9.11517e-19
3.49352e-18
1.28907e-17
4.57906e-17
1.56581e-16
5.15397e-16
1.6329e-15
4.97936e-15
1.46136e-14
4.12759e-14
1.12194e-13
2.93473e-13
7.38833e-13
1.79167e-12
4.20029e-12
9.6342e-12
2.16648e-11
4.77478e-11
1.20135e-10
7.82535e-10
1.42746e-08
2.89734e-07
5.16971e-06
7.7433e-05
0.000937327
0.00868325
0.0562776
0.21515
0.328129
0.317735
0.307017
0.290932
0.242265
0.102053
6.39749e-08
6.8716e-08
7.09586e-08
7.04438e-08
6.72297e-08
6.16812e-08
5.44013e-08
4.61235e-08
3.75911e-08
2.94503e-08
2.21783e-08
1.60545e-08
1.11708e-08
7.4711e-09
4.80278e-09
2.96758e-09
1.76241e-09
1.006e-09
5.51915e-10
2.9102e-10
1.47483e-10
7.18338e-11
3.36259e-11
1.51277e-11
6.54061e-12
2.71774e-12
1.08526e-12
4.1648e-13
1.53593e-13
5.43932e-14
1.81664e-14
8.54362e-15
0
0
0
0
0
0
0
0
0
0
0
0
0
0
0
0
0
0
0
0
0
0
0
0
0
0
0
0
0
0
0
0
3.77188e-20
1.62688e-19
6.75576e-19
2.70077e-18
1.03936e-17
3.85029e-17
1.3729e-16
4.71175e-16
1.55633e-15
4.94741e-15
1.51352e-14
4.45568e-14
1.26223e-13
3.44066e-13
9.02434e-13
2.27766e-12
5.53521e-12
1.2994e-11
2.98067e-11
6.68995e-11
1.45128e-10
3.02818e-10
6.07713e-10
1.17296e-09
2.17732e-09
3.88688e-09
6.67275e-09
1.10159e-08
1.74878e-08
2.66953e-08
3.9184e-08
5.53027e-08
7.50475e-08
9.79192e-08
1.22837e-07
1.48155e-07
1.71796e-07
1.9152e-07
2.05262e-07
2.11491e-07
2.09484e-07
1.99472e-07
1.82589e-07
1.60665e-07
1.359e-07
1.10498e-07
8.63625e-08
6.48818e-08
4.68534e-08
3.25217e-08
2.16977e-08
1.39141e-08
8.57619e-09
5.08068e-09
2.8929e-09
1.58316e-09
8.32698e-10
4.20938e-10
2.04508e-10
9.54906e-11
4.28511e-11
1.84803e-11
7.65947e-12
3.05088e-12
1.16784e-12
4.29597e-13
1.51777e-13
5.06851e-14
2.39412e-14
0
0
0
0
0
0
0
0
0
0
0
0
0
0
0
0
0
0
0
0
0
0
0
0
0
0
0
0
0
0
0
2.3537e-20
1.0595e-19
4.5911e-19
1.91503e-18
7.68868e-18
2.97115e-17
1.10502e-16
3.9552e-16
1.36238e-15
4.51586e-15
1.44038e-14
4.42066e-14
1.30544e-13
3.7091e-13
1.01393e-12
2.66661e-12
6.74753e-12
1.6435e-11
3.86391e-11
8.86507e-11
1.98809e-10
4.30799e-10
8.97806e-10
1.79946e-09
3.4685e-09
6.42932e-09
1.14604e-08
1.96441e-08
3.23781e-08
5.1315e-08
7.81991e-08
1.14581e-07
1.61422e-07
2.18649e-07
2.84745e-07
3.56515e-07
4.29146e-07
4.96626e-07
5.52512e-07
5.90929e-07
6.07577e-07
6.00529e-07
5.7059e-07
5.21155e-07
4.57566e-07
3.8617e-07
3.13282e-07
2.44297e-07
1.83113e-07
1.31927e-07
9.136e-08
6.08107e-08
3.89045e-08
2.39227e-08
1.41385e-08
8.03117e-09
4.38458e-09
2.30062e-09
1.16019e-09
5.62302e-10
2.61918e-10
1.17249e-10
5.04429e-11
2.0856e-11
8.28699e-12
3.16442e-12
1.16122e-12
4.0932e-13
1.36665e-13
6.48191e-14
0
0
0
0
0
0
0
0
0
0
0
0
0
0
0
0
0
0
0
0
0
0
0
0
0
0
0
0
0
0
1.34506e-20
6.32112e-20
2.85928e-19
1.24481e-18
5.21571e-18
2.10313e-17
8.1609e-17
3.04728e-16
1.09489e-15
3.78522e-15
1.2591e-14
4.02959e-14
1.24073e-13
3.67529e-13
1.04735e-12
2.87122e-12
7.57181e-12
1.92089e-11
4.68949e-11
1.10426e-10
2.53438e-10
5.6798e-10
1.22955e-09
2.55971e-09
5.12455e-09
9.8657e-09
1.82639e-08
3.25119e-08
5.56495e-08
9.15883e-08
1.44934e-07
2.20515e-07
3.2258e-07
4.53688e-07
6.13465e-07
7.97492e-07
9.96686e-07
1.19751e-06
1.38318e-06
1.53587e-06
1.63943e-06
1.68226e-06
1.65938e-06
1.57342e-06
1.43411e-06
1.25648e-06
1.05817e-06
8.566e-07
6.66526e-07
4.98502e-07
3.58362e-07
2.47615e-07
1.64448e-07
1.04971e-07
6.4401e-08
3.7975e-08
2.15217e-08
1.17227e-08
6.1368e-09
3.08758e-09
1.49297e-09
6.93802e-10
3.09862e-10
1.32998e-10
5.48604e-11
2.17475e-11
8.28499e-12
3.03318e-12
1.0668e-12
3.56043e-13
1.69426e-13
0
0
0
0
0
0
0
0
0
0
0
0
0
0
0
0
0
0
0
0
0
0
0
0
0
0
0
0
0
0
3.4528e-20
1.63095e-19
7.41363e-19
3.24282e-18
1.36488e-17
5.52754e-17
2.15384e-16
8.07466e-16
2.91237e-15
1.01057e-14
3.3734e-14
1.08327e-13
3.34625e-13
9.94312e-13
2.84194e-12
7.81311e-12
2.06604e-11
5.25489e-11
1.28588e-10
3.03303e-10
6.96431e-10
1.55994e-09
3.37406e-09
7.01772e-09
1.40354e-08
2.69915e-08
4.99106e-08
8.87382e-08
1.51695e-07
2.49325e-07
3.93989e-07
5.98574e-07
8.74296e-07
1.22772e-06
1.65741e-06
2.15103e-06
2.68373e-06
3.21886e-06
3.71132e-06
4.11351e-06
4.38275e-06
4.48876e-06
4.41922e-06
4.18214e-06
3.80433e-06
3.32645e-06
2.79577e-06
2.25858e-06
1.75378e-06
1.30893e-06
9.38979e-07
6.47423e-07
4.29051e-07
2.73283e-07
1.673e-07
9.8436e-08
5.5665e-08
3.02536e-08
1.58028e-08
7.93323e-09
3.82755e-09
1.77477e-09
7.90877e-10
3.38704e-10
1.39403e-10
5.51391e-11
2.09595e-11
7.65651e-12
2.68719e-12
8.95953e-13
4.26927e-13
0
0
0
0
0
0
0
0
0
0
0
0
0
0
0
0
0
0
0
0
0
0
0
0
0
0
0
0
0
1.72563e-20
8.51523e-20
4.04293e-19
1.84684e-18
8.11667e-18
3.43183e-17
1.39591e-16
5.46208e-16
2.05595e-15
7.44401e-15
2.59256e-14
8.68494e-14
2.79839e-13
8.67242e-13
2.58496e-12
7.41035e-12
2.04307e-11
5.41729e-11
1.38144e-10
3.38843e-10
8.00641e-10
1.83948e-09
4.11862e-09
8.90204e-09
1.85007e-08
3.69688e-08
7.10272e-08
1.31203e-07
2.33017e-07
3.97872e-07
6.53139e-07
1.03078e-06
1.56392e-06
2.28113e-06
3.1986e-06
4.31162e-06
5.58707e-06
6.95963e-06
8.33374e-06
9.59267e-06
1.0614e-05
1.1289e-05
1.15415e-05
1.13421e-05
1.07138e-05
9.7277e-06
8.48962e-06
7.12152e-06
5.74195e-06
4.44984e-06
3.31454e-06
2.37296e-06
1.63285e-06
1.07989e-06
6.86427e-07
4.19356e-07
2.46231e-07
1.38953e-07
7.53631e-08
3.92835e-08
1.96797e-08
9.47505e-09
4.38426e-09
1.94966e-09
8.33238e-10
3.42233e-10
1.35088e-10
5.12446e-11
1.86817e-11
6.54384e-12
2.17692e-12
1.03438e-12
0
0
0
0
0
0
0
0
0
0
0
0
0
0
0
0
0
0
0
0
0
0
0
0
0
0
0
0
0
4.06657e-20
2.01752e-19
9.62867e-19
4.42035e-18
1.95198e-17
8.29107e-17
3.38725e-16
1.33099e-15
5.03014e-15
1.82833e-14
6.39123e-14
2.14864e-13
6.94671e-13
2.15985e-12
6.45788e-12
1.85681e-11
5.13394e-11
1.365e-10
3.48984e-10
8.58055e-10
2.0312e-09
4.67002e-09
1.04535e-08
2.25811e-08
4.6898e-08
9.36434e-08
1.79766e-07
3.31769e-07
5.88647e-07
1.00406e-06
1.64642e-06
2.59533e-06
3.93287e-06
5.72909e-06
8.0226e-06
1.07992e-05
1.39737e-05
1.73808e-05
2.07806e-05
2.38824e-05
2.63827e-05
2.80143e-05
2.85927e-05
2.80506e-05
2.64507e-05
2.39737e-05
2.08849e-05
1.74874e-05
1.40738e-05
1.08865e-05
8.09374e-06
5.78355e-06
3.97209e-06
2.62193e-06
1.66341e-06
1.01426e-06
5.94381e-07
3.34773e-07
1.81217e-07
9.4278e-08
4.71392e-08
2.26523e-08
1.04616e-08
4.64343e-09
1.98077e-09
8.12045e-10
3.19946e-10
1.2115e-10
4.4088e-11
1.54165e-11
5.10471e-12
2.39887e-12
0
0
0
0
0
0
0
0
0
0
0
0
0
0
0
0
0
0
0
0
0
0
0
0
0
0
0
0
1.77507e-20
9.20646e-20
4.59244e-19
2.20321e-18
1.01653e-17
4.51048e-17
1.92466e-16
7.89782e-16
3.11652e-15
1.18259e-14
4.31513e-14
1.51404e-13
5.10812e-13
1.65713e-12
5.16912e-12
1.55037e-11
4.47103e-11
1.23973e-10
3.30515e-10
8.47212e-10
2.08811e-09
4.95246e-09
1.13958e-08
2.5505e-08
5.50699e-08
1.14311e-07
2.28108e-07
4.37586e-07
8.06962e-07
1.43055e-06
2.43783e-06
3.99351e-06
6.28853e-06
9.51877e-06
1.38499e-05
1.93705e-05
2.60411e-05
3.36511e-05
4.1798e-05
4.99028e-05
5.7267e-05
6.31669e-05
6.69697e-05
6.82444e-05
6.68426e-05
6.29266e-05
5.69387e-05
4.95188e-05
4.13924e-05
3.32549e-05
2.56788e-05
1.90579e-05
1.35942e-05
9.31993e-06
6.1411e-06
3.88915e-06
2.36721e-06
1.38481e-06
7.78604e-07
4.20738e-07
2.18513e-07
1.09071e-07
5.23253e-08
2.41258e-08
1.0691e-08
4.55327e-09
1.86379e-09
7.33226e-10
2.77235e-10
1.00746e-10
3.51805e-11
1.15473e-11
5.2884e-12
0
0
0
0
0
0
0
0
0
0
0
0
0
0
0
0
0
0
0
0
0
0
0
0
0
0
0
0
3.83874e-20
2.00238e-19
1.00433e-18
4.84364e-18
2.24607e-17
1.00144e-16
4.29304e-16
1.76947e-15
7.01214e-15
2.67166e-14
9.78659e-14
3.44663e-13
1.16699e-12
3.79878e-12
1.18883e-11
3.5768e-11
1.03458e-10
2.87686e-10
7.69066e-10
1.97648e-09
4.8833e-09
1.16048e-08
2.67281e-08
5.98201e-08
1.29121e-07
2.67913e-07
5.3436e-07
1.02449e-06
1.88805e-06
3.3446e-06
5.69503e-06
9.32103e-06
1.46637e-05
2.21735e-05
3.22276e-05
4.50222e-05
6.04539e-05
7.80226e-05
9.67858e-05
0.000115397
0.000132243
0.00014566
0.000154203
0.000156905
0.000153449
0.000144238
0.00013031
0.000113151
9.44329e-05
7.57479e-05
5.83982e-05
4.32723e-05
3.08179e-05
2.10949e-05
1.38782e-05
8.77544e-06
5.3332e-06
3.11522e-06
1.74893e-06
9.43714e-07
4.89432e-07
2.43966e-07