# vtk DataFile Version 2.0
Structured output generated by Nextsim
ASCII
DATASET STRUCTURED_POINTS
DIMENSIONS 3 3 1
ORIGIN 0 0 0
SPACING 0.5 0.5 0.5
POINT_DATA 9
SCALARS interpolate DOUBLE 1
LOOKUP_TABLE default
4.21938e-08
1.27044e-06
2.49869e-06
2.13349e-08
1.91735e-05
3.83257e-05
4.75919e-10
3.70766e-05
7.41527e-05
CELL_DATA 4
SCALARS average DOUBLE 1
LOOKUP_TABLE default
4.21938e-08
2.49869e-06
4.75919e-10
7.41527e-05
