# vtk DataFile Version 2.0
Structured output generated by Nextsim
ASCII
DATASET STRUCTURED_POINTS
DIMENSIONS 3 3 1
ORIGIN 0 0 0
SPACING 0.5 0.5 0.5
POINT_DATA 9
SCALARS interpolate DOUBLE 1
LOOKUP_TABLE default
1.53507e-07
5.79709e-06
1.14407e-05
7.74415e-08
0.000109785
0.000219493
1.37632e-09
0.000213773
0.000427545
CELL_DATA 4
SCALARS average DOUBLE 1
LOOKUP_TABLE default
1.53507e-07
1.14407e-05
1.37632e-09
0.000427545
