# vtk DataFile Version 2.0
Structured output generated by Nextsim
ASCII
DATASET STRUCTURED_POINTS
DIMENSIONS 3 3 1
ORIGIN 0 0 0
SPACING 0.5 0.5 0.5
POINT_DATA 9
SCALARS interpolate DOUBLE 1
LOOKUP_TABLE default
4.86122e-07
2.46741e-05
4.88621e-05
2.44678e-07
0.000628615
0.00125698
3.23358e-09
0.00123256
0.00246511
CELL_DATA 4
SCALARS average DOUBLE 1
LOOKUP_TABLE default
4.86122e-07
4.88621e-05
3.23358e-09
0.00246511
