# vtk DataFile Version 2.0
Structured output generated by Nextsim
ASCII
DATASET STRUCTURED_POINTS
DIMENSIONS 3 3 1
ORIGIN 0 0 0
SPACING 0.5 0.5 0.5
POINT_DATA 9
SCALARS interpolate DOUBLE 1
LOOKUP_TABLE default
2.86718e-08
8.16234e-07
1.6038e-06
1.45071e-08
1.1646e-05
2.32774e-05
3.42349e-10
2.24757e-05
4.49511e-05
CELL_DATA 4
SCALARS average DOUBLE 1
LOOKUP_TABLE default
2.86718e-08
1.6038e-06
3.42349e-10
4.49511e-05
