# vtk DataFile Version 2.0
Structured output generated by Nextsim
ASCII
DATASET STRUCTURED_POINTS
DIMENSIONS 3 3 1
ORIGIN 0 0 0
SPACING 0.5 0.5 0.5
POINT_DATA 9
SCALARS interpolate DOUBLE 1
LOOKUP_TABLE default
7.43344e-08
2.45066e-06
4.82698e-06
3.75496e-08
4.05033e-05
8.09691e-05
7.64746e-10
7.8556e-05
0.000157111
CELL_DATA 4
SCALARS average DOUBLE 1
LOOKUP_TABLE default
7.43344e-08
4.82698e-06
7.64746e-10
0.000157111
