# vtk DataFile Version 2.0
Structured output generated by Nextsim
ASCII
DATASET STRUCTURED_POINTS
DIMENSIONS 101 101 1
ORIGIN 0 0 0
SPACING 0.01 0.01 0.01
POINT_DATA 10201
SCALARS interpolate DOUBLE 1
LOOKUP_TABLE default
0
0
0
0
0
0
0
0
0
0
0
0
0
0
0
0
0
0
0
0
0
0
0
0
0
0
0
0
0
0
0
0
0
0
0
0
0
0
0
0
0
0
0
0
0
0
0
0
0
0
0
0
0
0
0
0
0
0
0
0
0
0
0
0
0
0
0
0
0
0
0
0
0
0
0
0
0
0
0
0
0
0
0
0
0
0
0
0
0
0
0
0
0
0
0
0
0
0
0
0
0
0
0
0
0
0
0
0
0
0
0
0
0
0
0
0
0
0
0
0
0
0
0
0
0
0
0
0
0
0
0
0
0
0
0
0
0
0
0
0
0
0
0
0
0
0
0
0
0
0
0
0
0
0
0
0
0
0
0
0
0
0
0
0
0
0
0
0
0
0
0
0
0
0
0
0
0
0
0
0
0
0
0
0
0
0
0
0
0
0
0
0
0
0
0
0
0
0
0
0
0
0
0
0
0
0
0
0
0
0
0
0
0
0
0
0
0
0
0
0
0
0
0
0
0
0
0
0
0
0
0
0
0
0
0
0
0
0
0
0
0
0
0
0
0
0
0
0
0
0
0
0
0
0
0
0
0
0
0
0
0
0
0
0
0
0
0
0
0
0
0
0
0
0
0
0
0
0
0
0
0
0
0
0
0
0
0
0
0
0
0
0
0
0
0
0
0
0
0
0
0
0
0
0
0
0
0
0
0
0
0
0
0
0
0
0
0
0
0
0
0
0
0
0
0
0
0
0
0
0
0
0
0
0
0
0
0
0
0
0
0
0
0
0
0
0
0
0
0
0
0
0
0
0
0
0
0
0
0
0
0
0
0
0
0
0
0
0
0
0
0
0
0
0
0
0
0
0
0
0
0
0
0
0
0
0
0
0
0
0
0
0
0
0
0
0
0
0
0
0
0
0
0
0
0
0
0
0
0
0
0
0
0
0
0
0
0
0
0
0
0
0
0
0
0
0
0
0
0
0
0
0
0
0
0
0
0
0
0
0
0
0
0
0
0
0
0
0
0
0
0
0
0
0
0
0
0
0
0
0
0
0
0
0
0
0
0
0
0
0
1.48769e-20
1.90294e-20
1.10963e-20
0
0
0
0
0
0
0
0
0
0
0
0
0
0
0
0
0
0
0
0
0
0
0
0
0
0
0
0
0
0
0
0
0
0
0
0
0
0
0
0
0
0
0
0
0
0
0
0
0
0
0
0
0
0
0
0
0
0
0
0
0
0
0
0
0
0
0
0
0
0
0
0
0
0
0
0
0
0
0
0
0
0
0
0
0
0
0
0
0
0
0
0
0
0
1.75251e-20
5.23096e-20
1.36312e-19
3.10821e-19
5.70466e-19
7.08805e-19
4.06242e-19
1.07825e-19
6.11007e-20
1.56505e-20
0
0
0
0
0
0
0
0
0
0
0
0
0
0
0
0
0
0
0
0
0
0
0
0
0
0
0
0
0
0
0
0
0
0
0
0
0
0
0
0
0
0
0
0
0
0
0
0
0
0
0
0
0
0
0
0
0
0
0
0
0
0
0
0
0
0
0
0
0
0
0
0
0
0
0
0
0
0
0
0
0
0
0
0
0
0
0
0
0
4.32434e-20
2.10987e-19
7.72544e-19
2.17596e-18
5.35015e-18
1.16074e-17
2.04683e-17
2.46896e-17
1.39109e-17
3.6021e-18
2.01114e-18
5.05232e-19
2.5682e-19
1.57993e-20
0
0
0
0
0
0
0
0
0
0
0
0
0
0
0
0
0
0
0
0
0
0
0
0
0
0
0
0
0
0
0
0
0
0
0
0
0
0
0
0
0
0
0
0
0
0
0
0
0
0
0
0
0
0
0
0
0
0
0
0
0
0
0
0
0
0
0
0
0
0
0
0
0
0
0
0
0
0
0
0
0
0
0
0
0
4.10864e-20
3.15699e-19
1.93352e-18
9.09913e-18
3.18553e-17
8.46395e-17
1.96115e-16
4.04337e-16
6.84371e-16
8.00961e-16
4.43744e-16
1.12526e-16
6.19155e-17
1.5305e-17
7.69226e-18
4.81238e-19
0
0
0
0
0
0
0
0
0
0
0
0
0
0
0
0
0
0
0
0
0
0
0
0
0
0
0
0
0
0
0
0
0
0
0
0
0
0
0
0
0
0
0
0
0
0
0
0
0
0
0
0
0
0
0
0
0
0
0
0
0
0
0
0
0
0
0
0
0
0
0
0
0
0
0
0
0
0
0
0
0
0
0
1.8641e-20
2.0102e-19
1.82286e-18
1.3573e-17
8.04473e-17
3.65106e-16
1.22262e-15
3.06377e-15
6.68195e-15
1.30764e-14
2.1223e-14
2.40861e-14
1.31252e-14
3.27371e-15
1.77572e-15
4.33513e-16
2.15433e-16
1.37507e-17
3.40297e-20
0
0
0
0
0
0
0
0
0
0
0
0
0
0
0
0
0
0
0
0
0
0
0
0
0
0
0
0
0
0
0
0
0
0
0
0
0
0
0
0
0
0
0
0
0
0
0
0
0
0
0
0
0
0
0
0
0
0
0
0
0
0
0
0
0
0
0
0
0
0
0
0
0
0
0
0
0
0
0
0
0
6.72356e-20
8.19555e-19
8.55304e-18
7.505e-17
5.40643e-16
3.09764e-15
1.35532e-14
4.34269e-14
1.02628e-13
2.10444e-13
3.90459e-13
6.07066e-13
6.6773e-13
3.58049e-13
8.82818e-14
4.72242e-14
1.14347e-14
5.61901e-15
3.67264e-16
9.92705e-19
0
0
0
0
0
0
0
0
0
0
0
0
0
0
0
0
0
0
0
0
0
0
0
0
0
0
0
0
0
0
0
0
0
0
0
0
0
0
0
0
0
0
0
0
0
0
0
0
0
0
0
0
0
0
0
0
0
0
0
0
0
0
0
0
0
0
0
0
0
0
0
0
0
0
0
0
0
0
0
1.3574e-20
2.09694e-19
2.84251e-18
3.34406e-17
3.36766e-16
2.85193e-15
1.98334e-14
1.09686e-13
4.62365e-13
1.41798e-12
3.16033e-12
6.08655e-12
1.06951e-11
1.59137e-11
1.69557e-11
8.95194e-12
2.19469e-12
1.15839e-12
2.79554e-13
1.35858e-13
9.13163e-15
2.71665e-17
7.08136e-20
0
0
0
0
0
0
0
0
0
0
0
0
0
0
0
0
0
0
0
0
0
0
0
0
0
0
0
0
0
0
0
0
0
0
0
0
0
0
0
0
0
0
0
0
0
0
0
0
0
0
0
0
0
0
0
0
0
0
0
0
0
0
0
0
0
0
0
0
0
0
0
0
0
0
0
0
0
3.41312e-20
5.74311e-19
8.54506e-18
1.11438e-16
1.26046e-15
1.22035e-14
9.94055e-14
6.65493e-13
3.54517e-12
1.43829e-11
4.22247e-11
8.87646e-11
1.60407e-10
2.6666e-10
3.79369e-10
3.91364e-10
2.03613e-10
4.99756e-11
2.60459e-11
6.30015e-12
3.02879e-12
2.10375e-13
6.94939e-16
1.98142e-18
0
0
0
0
0
0
0
0
0
0
0
0
0
0
0
0
0
0
0
0
0
0
0
0
0
0
0
0
0
0
0
0
0
0
0
0
0
0
0
0
0
0
0
0
0
0
0
0
0
0
0
0
0
0
0
0
0
0
0
0
0
0
0
0
0
0
0
0
0
0
0
0
0
0
0
0
7.70397e-20
1.40077e-18
2.26446e-17
3.23081e-16
4.03445e-15
4.36609e-14
4.0446e-13
3.15512e-12
2.02588e-11
1.03666e-10
4.04149e-10
1.13573e-09
2.25246e-09
3.81589e-09
5.99546e-09
8.14817e-09
8.13549e-09
4.17579e-09
1.03446e-09
5.32866e-10
1.30047e-10
6.18715e-11
4.46628e-12
1.65496e-14
5.20086e-17
0
0
0
0
0
0
0
0
0
0
0
0
0
0
0
0
0
0
0
0
0
0
0
0
0
0
0
0
0
0
0
0
0
0
0
0
0
0
0
0
0
0
0
0
0
0
0
0
0
0
0
0
0
0
0
0
0
0
0
0
0
0
0
0
0
0
0
0
0
0
0
0
0
0
0
1.57843e-19
3.07965e-18
5.36899e-17
8.29941e-16
1.12947e-14
1.3427e-13
1.38177e-12
1.21726e-11
9.04175e-11
5.54093e-10
2.71326e-09
1.01412e-08
2.72698e-08
5.10377e-08
8.09913e-08
1.20161e-07
1.55876e-07
1.50589e-07
7.63851e-08
1.92865e-08
9.83235e-09
2.44014e-09
1.14956e-09
8.6822e-11
3.6519e-13
1.27601e-15
0
0
0
0
0
0
0
0
0
0
0
0
0
0
0
0
0
0
0
0
0
0
0
0
0
0
0
0
0
0
0
0
0
0
0
0
0
0
0
0
0
0
0
0
0
0
0
0
0
0
0
0
0
0
0
0
0
0
0
0
0
0
0
0
0
0
0
0
0
0
0
0
0
1.40757e-20
3.03233e-19
6.16707e-18
1.15224e-16
1.9172e-15
2.81878e-14
3.63665e-13
4.08699e-12
3.96907e-11
3.29894e-10
2.31583e-09
1.34562e-08
6.27278e-08
2.24015e-07
5.75924e-07
1.01751e-06
1.51144e-06
2.11579e-06
2.61789e-06
2.44698e-06
1.22961e-06
3.20238e-07
1.61881e-07
4.1239e-08
1.92546e-08
1.53374e-09
7.42639e-12
2.91434e-14
0
0
0
0
0
0
0
0
0
0
0
0
0
0
0
0
0
0
0
0
0
0
0
0
0
0
0
0
0
0
0
0
0
0
0
0
0
0
0
0
0
0
0
0
0
0
0
0
0
0
0
0
0
0
0
0
0
0
0
0
0
0
0
0
0
0
0
0
0
0
0
0
2.55603e-20
5.60385e-19
1.15922e-17
2.25626e-16
4.01969e-15
6.35249e-14
8.83306e-13
1.07306e-11
1.13093e-10
1.02688e-09
7.97206e-09
5.23644e-08
2.85942e-07
1.25982e-06
4.27706e-06
1.04964e-05
1.75104e-05
2.43346e-05
3.21202e-05
3.78861e-05
3.42722e-05
1.71236e-05
4.66927e-06
2.3467e-06
6.20738e-07
2.87609e-07
2.43976e-08
1.38291e-10
6.1672e-13
0
0
0
0
0
0
0
0
0
0
0
0
0
0
0
0
0
0
0
0
0
0
0
0
0
0
0
0
0
0
0
0
0
0
0
0
0
0
0
0
0
0
0
0
0
0
0
0
0
0
0
0
0
0
0
0
0
0
0
0
0
0
0
0
0
0
0
0
0
0
0
4.43801e-20
9.9136e-19
2.08801e-17
4.13476e-16
7.67327e-15
1.29801e-13
1.93909e-12
2.53585e-11
2.88094e-10
2.82286e-09
2.3707e-08
1.69746e-07
1.02953e-06
5.21904e-06
2.1511e-05
6.88935e-05
0.000160926
0.000253536
0.000329533
0.000409961
0.000460838
0.0004038
0.000201747
5.87107e-05
2.9453e-05
8.2057e-06
3.78011e-06
3.45599e-07
2.34036e-09
1.20261e-11
0
0
0
0
0
0
0
0
0
0
0
0
0
0
0
0
0
0
0
0
0
0
0
0
0
0
0
0
0
0
0
0
0
0
0
0
0
0
0
0
0
0
0
0
0
0
0
0
0
0
0
0
0
0
0
0
0
0
0
0
0
0
0
0
0
0
0
0
0
0
7.25791e-20
1.65549e-18
3.55779e-17
7.18271e-16
1.3577e-14
2.39375e-13
3.82925e-12
5.38462e-11
6.59042e-10
6.95854e-09
6.28525e-08
4.82502e-07
3.13774e-06
1.72646e-05
7.98643e-05
0.000303371
0.000905495
0.00200268
0.00297926
0.00362178
0.00424663
0.00455045
0.00386974
0.00195142
0.00062153
0.000313118
9.35651e-05
4.29784e-05
4.29917e-06
3.56692e-08
2.1472e-10
0
0
0
0
0
0
0
0
0
0
0
0
0
0
0
0
0
0
0
0
0
0
0
0
0
0
0
0
0
0
0
0
0
0
0
0
0
0
0
0
0
0
0
0
0
0
0
0
0
0
0
0
0
0
0
0
0
0
0
0
0
0
0
0
0
0
0
0
0
1.08947e-19
2.54482e-18
5.59684e-17
1.15545e-15
2.23141e-14
4.01537e-13
6.70244e-12
1.01008e-10
1.33212e-09
1.52008e-08
1.4844e-07
1.227e-06
8.51052e-06
4.93802e-05
0.000240802
0.000991648
0.00339419
0.00925158
0.0191801
0.0269171
0.0306293
0.0338743
0.0346461
0.0287173
0.0148559
0.00535972
0.00273806
0.000898614
0.000413443
4.61401e-05
4.84169e-07
3.48352e-09
0
0
0
0
0
0
0
0
0
0
0
0
0
0
0
0
0
0
0
0
0
0
0
0
0
0
0
0
0
0
0
0
0
0
0
0
0
0
0
0
0
0
0
0
0
0
0
0
0
0
0
0
0
0
0
0
0
0
0
0
0
0
0
0
0
0
0
0
1.44516e-19
3.46769e-18
7.83042e-17
1.65878e-15
3.28477e-14
6.05588e-13
1.03462e-11
1.62917e-10
2.30436e-09
2.8414e-08
3.01448e-07
2.71384e-06
2.04231e-05
0.000126713
0.00064368
0.00269901
0.00953947
0.0283946
0.0681372
0.129609
0.171074
0.182697
0.1911
0.187301
0.15282
0.0836721
0.0358915
0.0189057
0.00703575
0.0032664
0.000417391
5.77273e-06
5.08845e-08
0
0
0
0
0
0
0
0
0
0
0
0
0
0
0
0
0
0
0
0
0
0
0
0
0
0
0
0
0
0
0
0
0
0
0
0
0
0
0
0
0
0
0
0
0
0
0
0
0
0
0
0
0
0
0
0
0
0
0
0
0
0
0
0
0
0
0
1.60512e-19
3.96862e-18
9.2309e-17
2.01341e-15
4.10329e-14
7.78113e-13
1.36644e-11
2.20986e-10
3.26987e-09
4.32358e-08
4.96949e-07
4.89096e-06
4.05152e-05
0.000276764
0.00152501
0.00666042
0.0231238
0.0663533
0.161983
0.318359
0.526151
0.646681
0.6539
0.652863
0.620931
0.512179
0.317492
0.173391
0.0971596
0.0428446
0.0203328
0.00308375
5.93998e-05
6.61753e-07
0
0
0
0
0
0
0
0
0
0
0
0
0
0
0
0
0
0
0
0
0
0
0
0
0
0
0
0
0
0
0
0
0
0
0
0
0
0
0
0
0
0
0
0
0
0
0
0
0
0
0
0
0
0
0
0
0
0
0
0
0
0
0
0
0
0
1.3759e-19
3.51538e-18
8.44813e-17
1.90349e-15
4.0064e-14
7.84426e-13
1.42183e-11
2.37244e-10
3.62009e-09
5.01172e-08
6.16767e-07
6.58612e-06
5.99898e-05
0.000456435
0.00282453
0.0137547
0.0508519
0.139882
0.299239
0.543614
0.758632
0.91387
0.999779
0.998496
0.991593
0.962904
0.877432
0.714777
0.535698
0.34059
0.188874
0.0939279
0.0178008
0.000515439
7.55534e-06
3.29416e-20
2.82423e-20
2.32736e-20
1.84369e-20
1.40398e-20
1.02771e-20
0
0
0
0
0
0
0
0
0
0
0
0
0
0
0
0
0
0
0
0
0
0
0
0
0
0
0
0
0
0
0
0
0
0
0
0
0
0
0
0
0
0
0
0
0
0
0
0
0
0
0
0
0
0
0
0
0
0
0
7.88954e-20
2.08911e-18
5.2034e-17
1.21516e-15
2.65105e-14
5.3805e-13
1.01102e-11
1.74901e-10
2.7673e-09
3.97316e-08
5.12739e-07
5.84988e-06
5.78353e-05
0.000485925
0.00338372
0.0188844
0.0807153
0.248784
0.518597
0.741509
0.906914
1
1
0.999998
0.999978
0.99982
0.998736
0.9927
0.966744
0.886627
0.72757
0.537398
0.295238
0.0753036
0.00365596
7.43791e-05
1.9396e-19
1.65651e-19
1.35926e-19
1.07221e-19
8.13037e-20
5.92631e-20
4.15231e-20
2.79651e-20
1.8103e-20
1.12639e-20
0
0
0
0
0
0
0
0
0
0
0
0
0
0
0
0
0
0
0
0
0
0
0
0
0
0
0
0
0
0
0
0
0
0
0
0
0
0
0
0
0
0
0
0
0
0
0
0
0
0
0
0
0
0
2.19871e-20
6.06164e-19
1.57263e-17
3.82745e-16
8.70761e-15
1.84431e-13
3.61985e-12
6.54823e-11
1.08489e-09
1.63387e-08
2.21673e-07
2.67973e-06
2.84658e-05
0.000261029
0.00201959
0.0127873
0.0635139
0.232988
0.579841
0.899364
1
1
1
1
1
1
0.999998
0.99998
0.999827
0.998698
0.991857
0.959191
0.84381
0.571643
0.213695
0.0202909
0.000616558
1.10333e-18
9.38883e-19
7.67234e-19
6.02721e-19
4.55161e-19
3.30417e-19
2.30567e-19
1.54653e-19
9.97092e-20
6.17899e-20
3.68041e-20
2.10698e-20
1.15932e-20
0
0
0
0
0
0
0
0
0
0
0
0
0
0
0
0
0
0
0
0
0
0
0
0
0
0
0
0
0
0
0
0
0
0
0
0
0
0
0
0
0
0
0
0
0
0
0
0
0
0
0
3.86375e-20
1.07727e-18
2.82644e-17
6.95618e-16
1.60007e-14
3.42564e-13
6.79359e-12
1.24105e-10
2.07476e-09
3.14948e-08
4.30025e-07
5.22006e-06
5.53338e-05
0.000500746
0.00377155
0.0228528
0.106226
0.353742
0.767048
1
1
1
1
1
1
1
1
0.999997
0.999969
0.999715
0.997802
0.986105
0.93111
0.748558
0.384108
0.0827778
0.00416563
6.05494e-18
5.14141e-18
4.18472e-18
3.27437e-18
2.46293e-18
1.78087e-18
1.2378e-18
8.26997e-19
5.31101e-19
3.27839e-19
1.94512e-19
1.10924e-19
6.07972e-20
3.20271e-20
1.6215e-20
0
0
0
0
0
0
0
0
0
0
0
0
0
0
0
0
0
0
0
0
0
0
0
0
0
0
0
0
0
0
0
0
0
0
0
0
0
0
0
0
0
0
0
0
0
0
0
0
0
1.63142e-19
4.57165e-18
1.20182e-16
2.95334e-15
6.75673e-14
1.43244e-12
2.79887e-11
5.00843e-10
8.14647e-09
1.19362e-07
1.55814e-06
1.78747e-05
0.000177033
0.00147873
0.0100971
0.0539599
0.211893
0.557914
0.891202
1
1
1
1
1
1
1
1
0.999999
0.999988
0.999882
0.999043
0.993583
0.965626
0.860004
0.594921
0.227999
0.0218901
3.22197e-17
2.7198e-17
2.20521e-17
1.71886e-17
1.28796e-17
9.27722e-18
6.42363e-18
4.27542e-18
2.73528e-18
1.68206e-18
9.94229e-19
5.64844e-19
3.08431e-19
1.6187e-19
8.16478e-20
3.95808e-20
1.84408e-20
0
0
0
0
0
0
0
0
0
0
0
0
0
0
0
0
0
0
0
0
0
0
0
0
0
0
0
0
0
0
0
0
0
0
0
0
0
0
0
0
0
0
0
0
0
0
0
2.74421e-19
7.78878e-18
2.07381e-16
5.1611e-15
1.19561e-13
2.56585e-12
5.0729e-11
9.17952e-10
1.50846e-08
2.22998e-07
2.9314e-06
3.37678e-05
0.000333213
0.00273513
0.0180346
0.0909572
0.326526
0.75117
1
1
1
1
1
1
1
1
1
1
0.999998
0.99998
0.999805
0.998378
0.988945
0.941031
0.769542
0.402238
0.0833368
1.65258e-16
1.38967e-16
1.12256e-16
8.71747e-17
6.5079e-17
4.67037e-17
3.22189e-17
2.13653e-17
1.36187e-17
8.34418e-18
4.91406e-18
2.78162e-18
1.51338e-18
7.91369e-19
3.97728e-19
1.92115e-19
8.91854e-20
3.97903e-20
1.7061e-20
0
0
0
0
0
0
0
0
0
0
0
0
0
0
0
0
0
0
0
0
0
0
0
0
0
0
0
0
0
0
0
0
0
0
0
0
0
0
0
0
0
0
0
0
3.8785e-20
1.18258e-18
3.38246e-17
9.04309e-16
2.25064e-14
5.18996e-13
1.10286e-11
2.1459e-10
3.79437e-09
6.04165e-08
8.56694e-07
1.0669e-05
0.000114645
0.00103905
0.00770099
0.044654
0.18968
0.53417
0.882377
1
1
1
1
1
1
1
1
1
1
0.999999
0.999992
0.999921
0.999304
0.994947
0.970725
0.871408
0.601756
0.205502
8.18527e-16
6.85708e-16
5.51926e-16
4.27077e-16
3.1769e-16
2.27176e-16
1.56161e-16
1.03187e-16
6.55404e-17
4.00143e-17
2.34819e-17
1.32451e-17
7.18084e-18
3.7418e-18
1.87398e-18
9.02029e-19
4.17291e-19
1.85529e-19
7.92745e-20
3.25533e-20
1.28466e-20
0
0
0
0
0
0
0
0
0
0
0
0
0
0
0
0
0
0
0
0
0
0
0
0
0
0
0
0
0
0
0
0
0
0
0
0
0
0
0
0
0
0
5.36184e-20
1.64882e-18
4.75674e-17
1.28276e-15
3.22027e-14
7.49012e-13
1.60525e-11
3.14946e-10
5.61334e-09
9.0043e-08
1.28513e-06
1.60867e-05
0.000173364
0.00157116
0.0115937
0.0663732
0.273534
0.717342
1
1
1
1
1
1
1
1
1
1
1
1
0.999999
0.999985
0.999835
0.998491
0.988754
0.93496
0.729353
0.284506
3.91598e-15
3.26706e-15
2.62058e-15
2.0208e-15
1.49803e-15
1.06754e-15
7.31304e-16
4.81566e-16
3.04822e-16
1.85465e-16
1.08466e-16
6.09723e-17
3.29435e-17
1.71079e-17
8.53895e-18
4.09626e-18
1.88859e-18
8.36846e-19
3.56374e-19
1.45852e-19
5.73655e-20
2.16794e-20
0
0
0
0
0
0
0
0
0
0
0
0
0
0
0
0
0
0
0
0
0
0
0
0
0
0
0
0
0
0
0
0
0
0
0
0
0
0
0
0
0
2.79666e-20
8.85931e-19
2.6366e-17
7.34271e-16
1.90565e-14
4.58728e-13
1.01862e-11
2.0731e-10
3.83747e-09
6.40137e-08
9.51413e-07
1.24208e-05
0.00013985
0.00132526
0.0102197
0.0610648
0.261938
0.709893
0.999998
1
1
1
1
1
1
1
1
1
1
1
0.999999
0.999988
0.999866
0.998719
0.990025
0.939868
0.740053
0.291368
1.80726e-14
1.5028e-14
1.20143e-14
9.23374e-15
6.8223e-15
4.8456e-15
3.3084e-15
2.17136e-15
1.36988e-15
8.30726e-16
4.84229e-16
2.71302e-16
1.46102e-16
7.56224e-17
3.7621e-17
1.79882e-17
8.26633e-18
3.65091e-18
1.54969e-18
6.32174e-19
2.47837e-19
9.33615e-20
3.37058e-20
1.12688e-20
0
0
0
0
0
0
0
0
0
0
0
0
0
0
0
0
0
0
0
0
0
0
0
0
0
0
0
0
0
0
0
0
0
0
0
0
0
0
0
1.28234e-20
4.22851e-19
1.3159e-17
3.83546e-16
1.04231e-14
2.62831e-13
6.1157e-12
1.30462e-10
2.53183e-09
4.42845e-08
6.90185e-07
9.44826e-06
0.000111532
0.0011077
0.00894658
0.0559186
0.250207
0.702159
0.999929
1
1
1
1
1
1
1
1
1
1
1
0.999999
0.99999
0.999885
0.998856
0.990772
0.942625
0.745729
0.294913
8.05016e-14
6.6729e-14
5.31764e-14
4.07385e-14
3.00031e-14
2.12417e-14
1.44566e-14
9.45775e-15
5.94765e-15
3.59525e-15
2.08897e-15
1.16666e-15
6.2627e-16
3.23126e-16
1.60239e-16
7.63737e-17
3.49858e-17
1.54029e-17
6.5174e-18
2.6503e-18
1.03576e-18
3.88961e-19
1.40026e-19
4.6774e-20
2.13478e-20
0
0
0
0
0
0
0
0
0
0
0
0
0
0
0
0
0
0
0
0
0
0
0
0
0
0
0
0
0
0
0
0
0
0
0
0
0
0
0
1.93727e-19
6.30412e-18
1.92945e-16
5.50898e-15
1.45978e-13
3.56985e-12
8.00422e-11
1.63277e-09
3.00197e-08
4.91776e-07
7.07536e-06
8.77574e-05
0.000915388
0.00775934
0.050832
0.23773
0.692277
0.998448
0.999995
1
1
1
1
1
1
1
1
1
1
0.999999
0.999989
0.999866
0.998665
0.989362
0.935683
0.727202
0.282092
3.46068e-13
2.8598e-13
2.27196e-13
1.73519e-13
1.27399e-13
8.99176e-14
6.10068e-14
3.97884e-14
2.49443e-14
1.50318e-14
8.70707e-15
4.84779e-15
2.59429e-15
1.33441e-15
6.597e-16
3.13463e-16
1.43153e-16
6.28317e-17
2.65045e-17
1.07451e-17
4.1865e-18
1.56741e-18
5.62714e-19
1.87817e-19
8.59584e-20
0
0
0
0
0
0
0
0
0
0
0
0
0
0
0
0
0
0
0
0
0
0
0
0
0
0
0
0
0
0
0
0
0
0
0
0
0
0
0
8.82584e-20
2.89368e-18
9.28108e-17
2.78755e-15
7.77277e-14
2.00015e-12
4.71849e-11
1.01248e-09
1.9575e-08
3.3704e-07
5.09286e-06
6.627e-05
0.000724422
0.00643046
0.0440773
0.215433
0.654175
0.97693
0.999878
1
1
1
1
1
1
1
1
1
1
0.999998
0.999974
0.999718
0.997386
0.980854
0.897288
0.63245
0.218373
1.43555e-12
1.18279e-12
9.36879e-13
7.13411e-13
5.22235e-13
3.67496e-13
2.48595e-13
1.6165e-13
1.0104e-13
6.07069e-14
3.50592e-14
1.94615e-14
1.03838e-14
5.32514e-15
2.6248e-15
1.24349e-15
5.66192e-16
2.47773e-16
1.04209e-16
4.21224e-17
1.63632e-17
6.10838e-18
2.18707e-18
7.29447e-19
3.34806e-19
0
0
0
0
0
0
0
0
0
0
0
0
0
0
0
0
0
0
0
0
0
0
0
0
0
0
0
0
0
0
0
0
0
0
0
0
0
0
0
4.56827e-20
1.00138e-18
3.1417e-17
9.67941e-16
2.77972e-14
7.36631e-13
1.78904e-11
3.9519e-10
7.86801e-09
1.39637e-07
2.179e-06
2.93804e-05
0.000334259
0.00310655
0.0225431
0.119343
0.414289
0.812433
0.997735
0.99999
0.999998
0.999999
1
1
1
1
1
1
0.999998
0.999988
0.999911
0.999207
0.993542
0.957351
0.800704
0.421503
0.083893
5.74538e-12
4.72033e-12
3.72831e-12
2.83092e-12
2.06638e-12
1.44995e-12
9.78015e-13
6.34132e-13
3.95229e-13
2.36779e-13
1.3635e-13
7.5471e-14
4.0152e-14
2.0532e-14
1.00913e-14
4.76697e-15
2.16429e-15
9.44402e-16
3.96061e-16
1.59633e-16
6.1835e-17
2.30175e-17
8.21981e-18
2.73971e-18
1.26123e-18
0
0
0
0
0
0
0
0
0
0
0
0
0
0
0
0
0
0
0
0
0
0
0
0
0
0
0
0
0
0
0
0
0
0
0
0
0
0
2.30574e-20
7.95812e-20
3.20683e-19
2.95611e-18
6.58502e-17
1.73269e-15
4.35782e-14
1.02168e-12
2.23266e-11
4.56339e-10
8.74436e-09
1.56576e-07
2.58524e-06
3.76548e-05
0.000461184
0.00458098
0.0350476
0.190109
0.630672
0.971256
0.999778
0.999954
0.999973
0.999994
0.999997
0.999999
0.999999
0.999998
0.999995
0.999982
0.99991
0.999573
0.997461
0.98442
0.912711
0.659861
0.233758
2.60274e-11
2.21824e-11
1.81752e-11
1.43163e-11
1.08406e-11
7.89117e-12
5.52186e-12
3.71431e-12
2.40165e-12
1.49271e-12
8.91793e-13
5.12119e-13
2.82675e-13
1.49971e-13
7.64758e-14
3.74826e-14
1.76571e-14
7.99435e-15
3.47871e-15
1.45485e-15
5.84754e-16
2.25882e-16
8.38508e-17
2.98682e-17
9.9493e-18
4.59423e-18
0
0
0
0
0
0
0
0
0
0
0
0
0
0
0
0
0
0
0
0
0
0
0
0
0
0
0
0
0
0
0
0
0
0
0
0
0
2.52715e-20
8.87339e-20
3.00146e-19
9.82406e-19
3.26803e-18
1.62895e-17
2.55884e-16
7.12106e-15
2.03702e-13
5.46135e-12
1.34577e-10
3.00732e-09
6.00954e-08
1.05712e-06
1.60514e-05
0.000205259
0.00213997
0.0173616
0.102076
0.387472
0.797579
0.996366
0.999189
0.999543
0.999899
0.999942
0.999984
0.999977
0.999968
0.999942
0.999812
0.999218
0.997331
0.989399
0.958346
0.820677
0.444464
0.0906972
9.71832e-11
8.26111e-11
6.75105e-11
5.30373e-11
4.00554e-11
2.90804e-11
2.02952e-11
1.36154e-11
8.78023e-12
5.44266e-12
3.24294e-12
1.85731e-12
1.02244e-12
5.40992e-13
2.75132e-13
1.34487e-13
6.31833e-14
2.85299e-14
1.23814e-14
5.16418e-15
2.0701e-15
7.97507e-16
2.95258e-16
1.04914e-16
3.4929e-17
1.618e-17
0
0
0
0
0
0
0
0
0
0
0
0
0
0
0
0
0
0
0
0
0
0
0
0
0
0
0
0
0
0
0
0
0
0
0
0
2.55328e-20
9.33907e-20
3.28913e-19
1.11533e-18
3.64147e-18
1.14543e-17
3.49715e-17
1.11731e-16
6.02835e-16
9.58147e-15
2.30197e-13
5.58845e-12
1.30246e-10
2.90981e-09
6.18511e-08
1.19142e-06
1.9781e-05
0.000275621
0.00311059
0.0269667
0.164731
0.604631
0.95841
0.989161
0.994026
0.998539
0.999177
0.999765
0.99969
0.999589
0.99936
0.998321
0.993959
0.983578
0.951541
0.881886
0.668893
0.250203
3.9675e-10
3.49939e-10
2.96726e-10
2.4188e-10
1.89547e-10
1.4279e-10
1.03403e-10
7.19813e-11
4.81667e-11
3.0982e-11
1.91558e-11
1.13844e-11
6.50329e-12
3.57079e-12
1.8845e-12
9.55919e-13
4.66052e-13
2.18389e-13
9.83561e-14
4.25738e-14
1.77112e-14
7.08127e-15
2.72099e-15
1.00478e-15
3.56176e-16
1.18526e-16
5.50835e-17
0
0
0
0
0
0
0
0
0
0
0
0
0
0
0
0
0
0
0
0
0
0
0
0
0
0
0
0
0
0
0
0
0
0
0
2.37139e-20
9.03771e-20
3.31634e-19
1.17159e-18
3.98462e-18
1.30456e-17
4.11143e-17
1.24745e-16
3.65165e-16
1.06112e-15
4.10278e-15
5.15951e-14
1.39042e-12
3.89792e-11
1.00033e-09
2.29444e-08
4.6225e-07
8.02047e-06
0.000116972
0.00138656
0.0127196
0.0836214
0.345637
0.719762
0.899489
0.944802
0.98387
0.990995
0.997183
0.996535
0.99574
0.994188
0.987751
0.962482
0.916537
0.805376
0.655881
0.393822
0.0980534
1.38083e-09
1.21503e-09
1.02781e-09
8.3582e-10
6.53402e-10
4.91029e-10
3.54721e-10
2.46326e-10
1.64426e-10
1.05503e-10
6.50699e-11
3.85757e-11
2.19816e-11
1.20395e-11
6.33809e-12
3.20701e-12
1.55965e-12
7.29015e-13
3.27506e-13
1.41408e-13
5.86798e-14
2.34025e-14
8.96995e-15
3.30408e-15
1.16851e-15
3.88693e-16
1.81246e-16
0
0
0
0
0
0
0
0
0
0
0
0
0
0
0
0
0
0
0
0
0
0
0
0
0
0
0
0
0
0
0
0
0
0
2.0239e-20
8.03873e-20
3.07396e-19
1.13161e-18
4.01016e-18
1.36793e-17
4.49142e-17
1.41938e-16
4.31705e-16
1.26369e-15
3.56088e-15
9.68925e-15
2.63356e-14
9.47186e-14
9.61665e-13
2.07819e-11
5.2713e-10
1.29564e-08
2.79926e-07
5.19674e-06
8.08026e-05
0.0010152
0.00976797
0.0659402
0.265809
0.466623
0.691668
0.875633
0.929837
0.974044
0.970217
0.965905
0.958558
0.930793
0.827921
0.690737
0.456847
0.243296
0.103286
5.07328e-09
4.63303e-09
4.06747e-09
3.43289e-09
2.78524e-09
2.17233e-09
1.62871e-09
1.17384e-09
8.13226e-10
5.41563e-10
3.46667e-10
2.13304e-10
1.26153e-10
7.17142e-11
3.91845e-11
2.05788e-11
1.03877e-11
5.03963e-12
2.34995e-12
1.05316e-12
4.53623e-13
1.87785e-13
7.47106e-14
2.85665e-14
1.04971e-14
3.70398e-15
1.23167e-15
5.76303e-16
0
0
0
0
0
0
0
0
0
0
0
0
0
0
0
0
0
0
0
0
0
0
0
0
0
0
0
0
0
0
0
0
0
1.58671e-20
6.56954e-20
2.6185e-19
1.00467e-18
3.71046e-18
1.31899e-17
4.51272e-17
1.48595e-16
4.70882e-16
1.43598e-15
4.21395e-15
1.18993e-14
3.23319e-14
8.45394e-14
2.12902e-13
5.18875e-13
1.2406e-12
3.03511e-12
1.47996e-11
2.74319e-10
7.02403e-09
1.64216e-07
3.30839e-06
5.58118e-05
0.000760159
0.00791584
0.0576162
0.247607
0.439802
0.66171
0.832015
0.819616
0.806679
0.787118
0.719543
0.480822
0.26009
0.111664
1.75941e-08
1.73476e-08
1.64438e-08
1.49846e-08
1.3127e-08
1.10548e-08
8.94954e-09
6.96471e-09
5.21019e-09
3.74667e-09
2.58983e-09
1.72078e-09
1.09902e-09
6.7468e-10
3.9811e-10
2.25794e-10
1.2309e-10
6.44946e-11
3.24798e-11
1.57212e-11
7.31369e-12
3.27008e-12
1.40523e-12
5.8036e-13
2.30358e-13
8.78743e-14
3.2215e-14
1.13425e-14
3.77057e-15
1.77051e-15
0
0
0
0
0
0
0
0
0
0
0
0
0
0
0
0
0
0
0
0
0
0
0
0
0
0
0
0
0
0
0
0
1.14222e-20
4.93097e-20
2.04907e-19
8.19597e-19
3.15529e-18
1.1691e-17
4.16885e-17
1.43059e-16
4.72417e-16
1.50118e-15
4.59003e-15
1.35039e-14
3.82249e-14
1.04103e-13
2.72769e-13
6.87643e-13
1.66867e-12
3.90812e-12
8.927e-12
1.99206e-11
4.30356e-11
9.27116e-11
2.99598e-10
3.92136e-09
9.25373e-08
2.0263e-06
3.73294e-05
0.000554696
0.00628411
0.0494033
0.223636
0.355374
0.346224
0.336894
0.323334
0.278008
0.120721
5.06363e-08
5.39117e-08
5.51821e-08
5.43002e-08
5.1367e-08
4.67133e-08
4.08379e-08
3.43199e-08
2.77257e-08
2.15311e-08
1.60728e-08
1.15332e-08
7.955e-09
5.27416e-09
3.36112e-09
2.05886e-09
1.2122e-09
6.86004e-10
3.73141e-10
1.95078e-10
9.80237e-11
4.73405e-11
2.1974e-11
9.80293e-12
4.20308e-12
1.73196e-12
6.85908e-13
2.61061e-13
9.54904e-14
3.35495e-14
1.11502e-14
5.25465e-15
0
0
0
0
0
0
0
0
0
0
0
0
0
0
0
0
0
0
0
0
0
0
0
0
0
0
0
0
0
0
0
0
3.39783e-20
1.47246e-19
6.14134e-19
2.46512e-18
9.52244e-18
3.53976e-17
1.26618e-16
4.35809e-16
1.4433e-15
4.59899e-15
1.40992e-14
4.15855e-14
1.18001e-13
3.22118e-13
8.45894e-13
2.13698e-12
5.19545e-12
1.21837e-11
2.78353e-11
6.20598e-11
1.33633e-10
2.76737e-10
5.51135e-10
1.05554e-09
1.94403e-09
3.44299e-09
5.86352e-09
9.60203e-09
1.51195e-08
2.28915e-08
3.33246e-08
4.66442e-08
6.2772e-08
8.12196e-08
1.01036e-07
1.20837e-07
1.38941e-07
1.53588e-07
1.6322e-07
1.66753e-07
1.63776e-07
1.54631e-07
1.40348e-07
1.22455e-07
1.02706e-07
8.28059e-08
6.41752e-08
4.78087e-08
3.42355e-08
2.35651e-08
1.55912e-08
9.9152e-09
6.06082e-09
3.56093e-09
2.01091e-09
1.09148e-09
5.69407e-10
2.85504e-10
1.37588e-10
6.37264e-11
2.83679e-11
1.21366e-11
4.99028e-12
1.972e-12
7.48924e-13
2.73344e-13
9.58382e-14
3.18459e-14
1.50629e-14
0
0
0
0
0
0
0
0
0
0
0
0
0
0
0
0
0
0
0
0
0
0
0
0
0
0
0
0
0
0
0
2.14857e-20
9.71241e-20
4.22509e-19
1.76871e-18
7.12475e-18
2.76157e-17
1.02991e-16
3.69558e-16
1.27582e-15
4.23742e-15
1.35397e-14
4.16191e-14
1.23067e-13
3.50061e-13
9.57821e-13
2.52089e-12
6.38201e-12
1.55457e-11
3.65056e-11
8.34252e-11
1.85879e-10
3.99878e-10
8.27268e-10
1.64579e-09
3.14848e-09
5.79184e-09
1.0245e-08
1.7425e-08
2.84966e-08
4.4809e-08
6.77453e-08
9.84751e-08
1.37626e-07
1.84923e-07
2.38888e-07
2.96688e-07
3.54245e-07
4.06628e-07
4.48719e-07
4.76025e-07
4.85464e-07
4.75937e-07
4.4854e-07
4.06357e-07
3.53885e-07
2.96251e-07
2.38394e-07
1.84401e-07
1.37107e-07
9.79885e-08
6.73146e-08
4.44483e-08
2.82103e-08
1.72093e-08
1.00906e-08
5.6867e-09
3.0803e-09
1.60365e-09
8.02425e-10
3.85899e-10
1.78366e-10
7.92346e-11
3.38282e-11
1.38803e-11
5.47357e-12
2.07439e-12
7.55527e-13
2.64369e-13
8.78316e-14
4.16955e-14
0
0
0
0
0
0
0
0
0
0
0
0
0
0
0
0
0
0
0
0
0
0
0
0
0
0
0
0
0
0
1.24615e-20
5.87773e-20
2.66766e-19
1.16497e-18
4.8949e-18
1.97879e-17
7.69607e-17
2.87962e-16
1.03653e-15
3.58918e-15
1.19554e-14
3.83064e-14
1.18062e-13
3.49996e-13
9.97979e-13
2.737e-12
7.2196e-12
1.83162e-11
4.47022e-11
1.05123e-10
2.40326e-10
5.35185e-10
1.15039e-09
2.37783e-09
4.72602e-09
9.03197e-09
1.65971e-08
2.93248e-08
4.98178e-08
8.1371e-08
1.27786e-07
1.92939e-07
2.80073e-07
3.90868e-07
5.24433e-07
6.76462e-07
8.38853e-07
1.00002e-06
1.14607e-06
1.26264e-06
1.33726e-06
1.36148e-06
1.33248e-06
1.2536e-06
1.13371e-06
9.8556e-07
8.23565e-07
6.61519e-07
5.10753e-07
3.79052e-07
2.70397e-07
1.85402e-07
1.2219e-07
7.74025e-08
4.71272e-08
2.75792e-08
1.55124e-08
8.3861e-09
4.35733e-09
2.17598e-09
1.04439e-09
4.81763e-10
2.13584e-10
9.10043e-11
3.72657e-11
1.46658e-11
5.5469e-12
2.01621e-12
7.04136e-13
2.33884e-13
1.11409e-13
0
0
0
0
0
0
0
0
0
0
0
0
0
0
0
0
0
0
0
0
0
0
0
0
0
0
0
0
0
0
3.26196e-20
1.54506e-19
7.04074e-19
3.08663e-18
1.30175e-17
5.28124e-17
2.06106e-16
7.73718e-16
2.79381e-15
9.70337e-15
3.24151e-14
1.0415e-13
3.21847e-13
9.56551e-13
2.73416e-12
7.51605e-12
1.98699e-11
5.05173e-11
1.23533e-10
2.90932e-10
6.65434e-10
1.48124e-09
3.18173e-09
6.57145e-09
1.305e-08
2.49176e-08
4.57444e-08
8.07416e-08
1.37018e-07
2.2355e-07
3.50652e-07
5.28786e-07
7.66618e-07
1.06848e-06
1.43165e-06
1.8441e-06
2.28352e-06
2.71826e-06
3.11057e-06
3.42172e-06
3.61827e-06
3.67794e-06
3.59378e-06
3.37548e-06
3.04756e-06
2.64484e-06
2.20633e-06
1.76914e-06
1.36354e-06
1.01015e-06
7.19306e-07
4.92316e-07
3.23872e-07
2.04785e-07
1.24455e-07
7.2697e-08
4.08134e-08
2.20226e-08
1.14211e-08
5.69274e-09
2.7271e-09
1.25558e-09
5.55583e-10
2.36271e-10
9.65657e-11
3.79302e-11
1.43184e-11
5.19449e-12
1.81075e-12
6.01192e-13
2.87131e-13
0
0
0
0
0
0
0
0
0
0
0
0
0
0
0
0
0
0
0
0
0
0
0
0
0
0
0
0
0
1.65923e-20
8.20462e-20
3.90265e-19
1.78564e-18
7.85873e-18
3.32674e-17
1.35451e-16
5.30431e-16
1.99779e-15
7.23662e-15
2.52101e-14
8.44612e-14
2.72129e-13
8.43179e-13
2.51237e-12
7.19874e-12
1.9835e-11
5.2554e-11
1.33897e-10
3.28071e-10
7.73827e-10
1.77095e-09
3.94089e-09
8.46005e-09
1.74615e-08
3.46509e-08
6.61093e-08
1.21261e-07
2.13837e-07
3.62527e-07
5.90866e-07
9.25813e-07
1.39456e-06
2.01942e-06
2.81115e-06
3.7619e-06
4.83939e-06
5.98452e-06
7.11409e-06
8.12935e-06
8.92966e-06
9.42871e-06
9.56982e-06
9.33653e-06
8.75576e-06
7.89268e-06
6.8387e-06
5.69558e-06
4.55946e-06
3.5083e-06
2.59468e-06
1.84447e-06
1.26024e-06
8.2762e-07
5.22393e-07
3.16919e-07
1.84792e-07
1.03561e-07
5.57809e-08
2.88767e-08
1.43674e-08
6.87025e-09
3.1574e-09
1.39459e-09
5.91996e-10
2.41515e-10
9.46933e-11
3.56813e-11
1.29213e-11
4.49633e-12
1.4913e-12
7.1267e-13
0
0
0
0
0
0
0
0
0
0
0
0
0
0
0
0
0
0
0
0
0
0
0
0
0
0
0
0
0
3.99244e-20
1.98296e-19
9.47241e-19
4.35178e-18
1.92275e-17
8.16991e-17
3.33842e-16
1.31186e-15
4.95726e-15
1.80136e-14
6.29443e-14
2.11495e-13
6.8332e-13
2.12287e-12
6.34148e-12
1.82147e-11
5.03046e-11
1.33582e-10
3.41062e-10
8.37316e-10
1.97812e-09
4.53005e-09
1.00787e-08
2.16257e-08
4.46103e-08
8.84696e-08
1.68671e-07
3.09151e-07
5.44723e-07
9.22686e-07
1.50245e-06
2.35184e-06
3.53894e-06
5.1191e-06
7.1181e-06
9.51437e-06
1.22247e-05
1.50986e-05
1.79253e-05
2.04565e-05
2.244e-05
2.36613e-05
2.39814e-05
2.33631e-05
2.18776e-05
1.96916e-05
1.70361e-05
1.41666e-05
1.1323e-05
8.6988e-06
6.42321e-06
4.55868e-06
3.10968e-06
2.03882e-06
1.28478e-06
7.78142e-07
4.52968e-07
2.53427e-07
1.36274e-07
7.04274e-08
3.49816e-08
1.66995e-08
7.66176e-09
3.37843e-09
1.43172e-09
5.83122e-10
2.28251e-10
8.58655e-11
3.10436e-11
1.07853e-11
3.56843e-12
1.69823e-12
0
0
0
0
0
0
0
0
0
0
0
0
0
0
0
0
0
0
0
0
0
0
0
0
0
0
0
0
1.77923e-20
9.23084e-20
4.60523e-19
2.2093e-18
1.01915e-17
4.52066e-17
1.92811e-16
7.90721e-16
3.11795e-15
1.18212e-14
4.30923e-14
1.51033e-13
5.08954e-13
1.64896e-12
5.13647e-12
1.53829e-11
4.42918e-11
1.22608e-10
3.26303e-10
8.34888e-10
2.05376e-09
4.85982e-09
1.11376e-08
2.4777e-08
5.31433e-08
1.09576e-07
2.17192e-07
4.1384e-07
7.58011e-07
1.33466e-06
2.25896e-06
3.67529e-06
5.74797e-06
8.64118e-06
1.24872e-05
1.73454e-05
2.31597e-05
2.97238e-05
3.66688e-05
4.34819e-05
4.95604e-05
5.42969e-05
5.71775e-05
5.7874e-05
5.63052e-05
5.26522e-05
4.73244e-05
4.0884e-05
3.39483e-05
2.70943e-05
2.0784e-05
1.5324e-05
1.08593e-05
7.39635e-06
4.84192e-06
3.0465e-06
1.84231e-06
1.07079e-06
5.98166e-07
3.21155e-07
1.65722e-07
8.21894e-08
3.91761e-08
1.79472e-08
7.90199e-09
3.34382e-09
1.35992e-09
5.31552e-10
1.99683e-10
7.20935e-11
2.50134e-11
8.23217e-12
3.86331e-12
0
0
0
0
0
0
0
0
0
0
0
0
0
0
0
0
0
0
0
0
0
0
0
0
0
0
0
0
3.93442e-20
2.05079e-19
1.02773e-18
4.9516e-18
2.29361e-17
1.0214e-16
4.37288e-16
1.79983e-15
7.1217e-15
2.70907e-14
9.90686e-14
3.48281e-13
1.17706e-12
3.82419e-12
1.1944e-11
3.58612e-11
1.03506e-10
2.8719e-10
7.66011e-10
1.96408e-09
4.84114e-09
1.14748e-08
2.63194e-08
5.85506e-08
1.25548e-07
2.58775e-07
5.12707e-07
9.76437e-07
1.7875e-06
3.14535e-06
5.32e-06
8.64911e-06
1.35159e-05
2.03018e-05
2.9311e-05
4.06759e-05
5.42562e-05
6.95611e-05
8.57209e-05
0.000101533
0.000115593
0.000126489
0.000133037
0.000134489
0.000130676
0.00012204
0.000109546
9.4512e-05
7.83731e-05
6.2465e-05
4.78515e-05
3.52324e-05
2.49331e-05
1.69588e-05
1.10867e-05
6.96612e-06
4.20693e-06
2.44186e-06
1.36226e-06
7.30435e-07
3.7643e-07
1.86452e-07
8.87627e-08
4.06139e-08
1.78607e-08
7.54921e-09
3.0668e-09
1.19743e-09
4.4936e-10
1.62077e-10
5.61814e-11
1.82996e-11
8.31525e-12
0
0
0
0
0
0
0
0
0
0
0
0
0
0
0
0
0
0
0
0
0
0
0
0
0
0
0
1.79965e-20
9.98728e-20
5.19024e-19
2.17564e-18
1.06134e-17
4.96378e-17
2.21764e-16
9.53084e-16
3.93707e-15
1.56328e-14
5.96646e-14
2.18885e-13
7.7185e-13
2.61617e-12
8.52344e-12
2.66919e-11
8.03451e-11
2.32463e-10
6.46494e-10
1.72818e-09
4.44049e-09
1.0967e-08
2.6039e-08
5.97821e-08
1.3302e-07
2.85205e-07
5.87745e-07
1.16416e-06
2.21627e-06
4.05529e-06
7.13194e-06
1.20554e-05
1.95857e-05
3.05834e-05
4.59004e-05
6.62117e-05
9.17992e-05
0.000122329
0.000156678
0.000192873
0.000228204