# vtk DataFile Version 2.0
Structured output generated by Nextsim
ASCII
DATASET STRUCTURED_POINTS
DIMENSIONS 3 3 1
ORIGIN 0 0 0
SPACING 0.5 0.5 0.5
POINT_DATA 9
SCALARS interpolate DOUBLE 1
LOOKUP_TABLE default
1.82847e-07
7.1664e-06
1.41499e-05
9.22129e-08
0.000140866
0.00028164
1.57895e-09
0.000274566
0.00054913
CELL_DATA 4
SCALARS average DOUBLE 1
LOOKUP_TABLE default
1.82847e-07
1.41499e-05
1.57895e-09
0.00054913
