# vtk DataFile Version 2.0
Structured output generated by Nextsim
ASCII
DATASET STRUCTURED_POINTS
DIMENSIONS 101 101 1
ORIGIN 0 0 0
SPACING 0.01 0.01 0.01
POINT_DATA 10201
SCALARS interpolate DOUBLE 1
LOOKUP_TABLE default
0
0
0
0
0
0
0
0
0
0
0
0
0
0
0
0
0
0
0
0
0
0
0
0
0
0
0
0
0
0
0
0
0
0
0
0
0
0
0
0
0
0
0
0
0
0
0
0
0
0
0
0
0
0
0
0
0
0
0
0
0
0
0
0
0
0
0
0
0
0
0
0
0
0
0
0
0
0
0
0
0
0
0
0
0
0
0
0
0
0
0
0
0
0
0
0
0
0
0
0
0
0
0
0
0
0
0
0
0
0
0
0
0
0
0
0
0
0
0
0
0
0
0
0
0
0
0
0
0
0
0
0
0
0
0
0
0
0
0
0
0
0
0
0
0
0
0
0
0
0
0
0
0
0
0
0
0
0
0
0
0
0
0
0
0
0
0
0
0
0
0
0
0
0
0
0
0
0
0
0
0
0
0
0
0
0
0
0
0
0
0
0
0
0
0
0
0
0
0
0
0
0
0
0
0
0
0
0
0
0
0
0
0
0
0
0
0
0
0
0
0
0
0
0
0
0
0
0
0
0
0
0
0
0
0
0
0
0
0
0
0
0
0
0
0
0
0
0
0
0
0
0
0
0
0
0
0
0
0
0
0
0
0
0
0
0
0
0
0
0
0
0
0
0
0
0
0
0
0
0
0
0
0
0
0
0
0
0
0
0
0
0
0
0
0
0
0
0
0
0
0
0
0
0
0
0
0
0
0
0
0
0
0
0
0
0
0
0
0
0
0
0
0
0
0
0
0
0
0
0
0
0
0
0
0
0
0
0
0
0
0
0
0
0
0
0
0
0
0
0
0
0
0
0
0
0
0
0
0
0
0
0
0
0
0
0
0
0
0
0
0
0
0
0
0
0
0
0
0
0
0
0
0
0
0
0
0
0
0
0
0
0
0
0
0
0
0
0
0
0
0
0
0
0
0
0
0
0
0
0
0
0
0
0
0
0
0
0
0
0
0
0
0
0
0
0
0
0
0
0
0
0
0
0
0
0
0
0
0
0
0
0
0
0
0
0
0
0
0
0
0
0
0
0
0
0
0
0
0
0
0
0
0
0
0
0
0
1.29598e-20
3.44957e-20
7.86385e-20
1.41003e-19
1.69085e-19
9.80662e-20
3.11084e-20
1.77741e-20
0
0
0
0
0
0
0
0
0
0
0
0
0
0
0
0
0
0
0
0
0
0
0
0
0
0
0
0
0
0
0
0
0
0
0
0
0
0
0
0
0
0
0
0
0
0
0
0
0
0
0
0
0
0
0
0
0
0
0
0
0
0
0
0
0
0
0
0
0
0
0
0
0
0
0
0
0
0
0
0
0
0
0
0
0
0
0
0
0
0
1.03495e-20
4.73792e-20
1.69432e-19
4.89087e-19
1.23407e-18
2.68935e-18
4.65175e-18
5.42954e-18
3.09377e-18
9.53812e-19
5.36733e-19
1.58619e-19
7.86603e-20
0
0
0
0
0
0
0
0
0
0
0
0
0
0
0
0
0
0
0
0
0
0
0
0
0
0
0
0
0
0
0
0
0
0
0
0
0
0
0
0
0
0
0
0
0
0
0
0
0
0
0
0
0
0
0
0
0
0
0
0
0
0
0
0
0
0
0
0
0
0
0
0
0
0
0
0
0
0
0
0
0
0
0
0
0
0
1.08264e-20
7.52665e-20
4.22415e-19
1.86315e-18
6.36145e-18
1.73549e-17
4.14484e-17
8.62325e-17
1.43738e-16
1.63213e-16
9.1399e-17
2.74741e-17
1.52315e-17
4.4123e-18
2.16515e-18
1.51212e-19
0
0
0
0
0
0
0
0
0
0
0
0
0
0
0
0
0
0
0
0
0
0
0
0
0
0
0
0
0
0
0
0
0
0
0
0
0
0
0
0
0
0
0
0
0
0
0
0
0
0
0
0
0
0
0
0
0
0
0
0
0
0
0
0
0
0
0
0
0
0
0
0
0
0
0
0
0
0
0
0
0
0
0
0
5.39588e-20
4.40349e-19
2.97157e-18
1.61479e-17
6.86285e-17
2.2378e-16
5.76612e-16
1.30159e-15
2.58175e-15
4.14287e-15
4.57386e-15
2.51833e-15
7.40785e-16
4.04763e-16
1.15293e-16
5.5983e-17
3.97134e-18
1.22544e-20
0
0
0
0
0
0
0
0
0
0
0
0
0
0
0
0
0
0
0
0
0
0
0
0
0
0
0
0
0
0
0
0
0
0
0
0
0
0
0
0
0
0
0
0
0
0
0
0
0
0
0
0
0
0
0
0
0
0
0
0
0
0
0
0
0
0
0
0
0
0
0
0
0
0
0
0
0
0
0
0
0
2.06143e-20
2.25035e-19
2.11092e-18
1.67212e-17
1.09413e-16
5.75344e-16
2.35603e-15
7.33888e-15
1.78514e-14
3.80334e-14
7.18304e-14
1.1085e-13
1.1893e-13
6.44147e-14
1.862e-14
1.00318e-14
2.81967e-15
1.35492e-15
9.79437e-17
3.27198e-19
0
0
0
0
0
0
0
0
0
0
0
0
0
0
0
0
0
0
0
0
0
0
0
0
0
0
0
0
0
0
0
0
0
0
0
0
0
0
0
0
0
0
0
0
0
0
0
0
0
0
0
0
0
0
0
0
0
0
0
0
0
0
0
0
0
0
0
0
0
0
0
0
0
0
0
0
0
0
0
0
6.56791e-20
7.98477e-19
8.45303e-18
7.68587e-17
5.89876e-16
3.73723e-15
1.89999e-14
7.49496e-14
2.23086e-13
5.1208e-13
1.02839e-12
1.84694e-12
2.73828e-12
2.85353e-12
1.52134e-12
4.34243e-13
2.30818e-13
6.42788e-14
3.05709e-14
2.26014e-15
8.23021e-18
2.66686e-20
0
0
0
0
0
0
0
0
0
0
0
0
0
0
0
0
0
0
0
0
0
0
0
0
0
0
0
0
0
0
0
0
0
0
0
0
0
0
0
0
0
0
0
0
0
0
0
0
0
0
0
0
0
0
0
0
0
0
0
0
0
0
0
0
0
0
0
0
0
0
0
0
0
0
0
0
0
1.21537e-20
1.83046e-19
2.44765e-18
2.8795e-17
2.948e-16
2.59132e-15
1.92238e-14
1.17704e-13
5.77806e-13
2.1946e-12
6.24335e-12
1.35209e-11
2.55631e-11
4.36031e-11
6.20451e-11
6.27714e-11
3.297e-11
9.34481e-12
4.90414e-12
1.35945e-12
6.40065e-13
4.85992e-14
1.94406e-16
6.82951e-19
0
0
0
0
0
0
0
0
0
0
0
0
0
0
0
0
0
0
0
0
0
0
0
0
0
0
0
0
0
0
0
0
0
0
0
0
0
0
0
0
0
0
0
0
0
0
0
0
0
0
0
0
0
0
0
0
0
0
0
0
0
0
0
0
0
0
0
0
0
0
0
0
0
0
0
0
2.77142e-20
4.51615e-19
6.57467e-18
8.48635e-17
9.62703e-16
9.49784e-15
8.04371e-14
5.75044e-13
3.3941e-12
1.60595e-11
5.86818e-11
1.59583e-10
3.26027e-10
5.79615e-10
9.37864e-10
1.27959e-09
1.25632e-09
6.50816e-10
1.84376e-10
9.5623e-11
2.65279e-11
1.23691e-11
9.69186e-13
4.29674e-15
1.64757e-17
0
0
0
0
0
0
0
0
0
0
0
0
0
0
0
0
0
0
0
0
0
0
0
0
0
0
0
0
0
0
0
0
0
0
0
0
0
0
0
0
0
0
0
0
0
0
0
0
0
0
0
0
0
0
0
0
0
0
0
0
0
0
0
0
0
0
0
0
0
0
0
0
0
0
0
5.70132e-20
9.97449e-19
1.56813e-17
2.19817e-16
2.72736e-15
2.97021e-14
2.81112e-13
2.28375e-12
1.56708e-11
8.88664e-11
4.04292e-10
1.41939e-09
3.68974e-09
7.11122e-09
1.18752e-08
1.82076e-08
2.37972e-08
2.26675e-08
1.15989e-08
3.31e-09
1.69861e-09
4.74582e-10
2.1925e-10
1.78277e-11
8.84947e-14
3.73231e-16
0
0
0
0
0
0
0
0
0
0
0
0
0
0
0
0
0
0
0
0
0
0
0
0
0
0
0
0
0
0
0
0
0
0
0
0
0
0
0
0
0
0
0
0
0
0
0
0
0
0
0
0
0
0
0
0
0
0
0
0
0
0
0
0
0
0
0
0
0
0
0
0
0
0
1.09295e-19
1.99453e-18
3.36117e-17
5.07704e-16
6.82092e-15
8.09322e-14
8.41446e-13
7.59578e-12
5.88591e-11
3.85638e-10
2.09179e-09
9.11932e-09
3.07005e-08
7.62649e-08
1.38673e-07
2.17312e-07
3.15398e-07
3.94556e-07
3.64563e-07
1.84652e-07
5.35761e-08
2.72498e-08
7.7248e-09
3.53859e-09
3.00553e-10
1.69044e-12
7.91072e-15
0
0
0
0
0
0
0
0
0
0
0
0
0
0
0
0
0
0
0
0
0
0
0
0
0
0
0
0
0
0
0
0
0
0
0
0
0
0
0
0
0
0
0
0
0
0
0
0
0
0
0
0
0
0
0
0
0
0
0
0
0
0
0
0
0
0
0
0
0
0
0
0
1.02357e-20
2.00726e-19
3.72933e-18
6.54806e-17
1.05849e-15
1.52887e-14
1.95792e-13
2.208e-12
2.1767e-11
1.86049e-10
1.365e-09
8.48022e-09
4.37355e-08
1.81858e-07
5.85341e-07
1.38856e-06
2.38241e-06
3.50057e-06
4.80487e-06
5.74903e-06
5.15342e-06
2.59139e-06
7.73173e-07
3.90648e-07
1.13363e-07
5.1545e-08
4.60892e-09
2.97862e-11
1.56232e-13
0
0
0
0
0
0
0
0
0
0
0
0
0
0
0
0
0
0
0
0
0
0
0
0
0
0
0
0
0
0
0
0
0
0
0
0
0
0
0
0
0
0
0
0
0
0
0
0
0
0
0
0
0
0
0
0
0
0
0
0
0
0
0
0
0
0
0
0
0
0
0
1.77204e-20
3.53887e-19
6.69273e-18
1.1956e-16
2.01175e-15
3.10527e-14
4.26668e-13
5.17718e-12
5.51024e-11
5.10903e-10
4.09735e-09
2.81909e-08
1.64535e-07
8.00226e-07
3.15291e-06
9.65933e-06
2.18509e-05
3.53809e-05
4.8712e-05
6.31866e-05
7.22727e-05
6.28844e-05
3.15299e-05
9.81053e-06
4.93971e-06
1.4833e-06
6.70459e-07
6.37081e-08
4.8106e-10
2.86145e-12
0
0
0
0
0
0
0
0
0
0
0
0
0
0
0
0
0
0
0
0
0
0
0
0
0
0
0
0
0
0
0
0
0
0
0
0
0
0
0
0
0
0
0
0
0
0
0
0
0
0
0
0
0
0
0
0
0
0
0
0
0
0
0
0
0
0
0
0
0
0
2.93259e-20
5.96959e-19
1.15007e-17
2.09152e-16
3.58014e-15
5.74936e-14
8.43455e-13
1.09665e-11
1.25305e-10
1.24933e-09
1.07955e-08
8.0351e-08
5.12102e-07
2.7729e-06
1.25738e-05
4.65013e-05
0.000134676
0.000289772
0.000442828
0.000571047
0.000699679
0.000764897
0.000646823
0.00032551
0.00010752
5.41994e-05
1.7066e-05
7.68532e-06
7.85076e-07
7.06768e-09
4.83372e-11
0
0
0
0
0
0
0
0
0
0
0
0
0
0
0
0
0
0
0
0
0
0
0
0
0
0
0
0
0
0
0
0
0
0
0
0
0
0
0
0
0
0
0
0
0
0
0
0
0
0
0
0
0
0
0
0
0
0
0
0
0
0
0
0
0
0
0
0
0
4.5778e-20
9.51683e-19
1.87122e-17
3.47053e-16
6.0535e-15
9.89682e-14
1.5108e-12
2.097e-11
2.56737e-10
2.74664e-09
2.54695e-08
2.03177e-07
1.38613e-06
8.0582e-06
3.97992e-05
0.000165555
0.000566751
0.00153488
0.00312631
0.00450827
0.00544534
0.00630206
0.00658765
0.0054282
0.00277069
0.000994273
0.000505235
0.000169628
7.6356e-05
8.50755e-06
9.36109e-08
7.48286e-10
0
0
0
0
0
0
0
0
0
0
0
0
0
0
0
0
0
0
0
0
0
0
0
0
0
0
0
0
0
0
0
0
0
0
0
0
0
0
0
0
0
0
0
0
0
0
0
0
0
0
0
0
0
0
0
0
0
0
0
0
0
0
0
0
0
0
0
0
6.57587e-20
1.39995e-18
2.81707e-17
5.34337e-16
9.5241e-15
1.58969e-13
2.47492e-12
3.57773e-11
4.67857e-10
5.37096e-09
5.35483e-08
4.59061e-07
3.35166e-06
2.06889e-05
0.000107703
0.00047422
0.00176743
0.00548247
0.0136322
0.0260482
0.0354155
0.0401017
0.0438775
0.0439322
0.0354631
0.0186885
0.00751425
0.00389083
0.00142312
0.000643578
7.96779e-05
1.10554e-06
1.05352e-08
0
0
0
0
0
0
0
0
0
0
0
0
0
0
0
0
0
0
0
0
0
0
0
0
0
0
0
0
0
0
0
0
0
0
0
0
0
0
0
0
0
0
0
0
0
0
0
0
0
0
0
0
0
0
0
0
0
0
0
0
0
0
0
0
0
0
0
8.37141e-20
1.83067e-18
3.78212e-17
7.36113e-16
1.34543e-14
2.30104e-13
3.66743e-12
5.4217e-11
7.39417e-10
9.07349e-09
9.73287e-08
9.01239e-07
7.11305e-06
4.72176e-05
0.000260606
0.0011902
0.00453223
0.0146108
0.0396916
0.087665
0.154161
0.197118
0.209852
0.217755
0.209853
0.167922
0.0943887
0.0443492
0.0238234
0.00976482
0.00447272
0.000630557
1.14843e-05
1.33673e-07
0
0
0
0
0
0
0
0
0
0
0
0
0
0
0
0
0
0
0
0
0
0
0
0
0
0
0
0
0
0
0
0
0
0
0
0
0
0
0
0
0
0
0
0
0
0
0
0
0
0
0
0
0
0
0
0
0
0
0
0
0
0
0
0
0
0
8.94741e-20
2.01596e-18
4.28979e-17
8.59629e-16
1.61697e-14
2.84455e-13
4.66047e-12
7.07719e-11
9.90558e-10
1.26952e-08
1.45601e-07
1.45484e-06
1.24816e-05
9.0475e-05
0.000543873
0.00265989
0.0104423
0.0330892
0.0874562
0.196611
0.36141
0.557835
0.665412
0.672373
0.668382
0.628968
0.513995
0.328841
0.190956
0.109881
0.0524009
0.0246515
0.00409166
0.000103141
1.51154e-06
0
0
0
0
0
0
0
0
0
0
0
0
0
0
0
0
0
0
0
0
0
0
0
0
0
0
0
0
0
0
0
0
0
0
0
0
0
0
0
0
0
0
0
0
0
0
0
0
0
0
0
0
0
0
0
0
0
0
0
0
0
0
0
0
0
7.39866e-20
1.72249e-18
3.78674e-17
7.83819e-16
1.52261e-14
2.76551e-13
4.67668e-12
7.32753e-11
1.05773e-09
1.39731e-08
1.67599e-07
1.78906e-06
1.66005e-05
0.000131678
0.00087521
0.00475406
0.0204843
0.0679346
0.171296
0.342714
0.581918
0.785967
0.926864
0.999606
0.99766
0.988529
0.955236
0.867058
0.712467
0.53991
0.353694
0.205814
0.102033
0.0208913
0.000783176
1.50224e-05
5.35355e-20
4.64834e-20
3.87845e-20
3.11072e-20
2.39824e-20
1.77721e-20
1.26588e-20
0
0
0
0
0
0
0
0
0
0
0
0
0
0
0
0
0
0
0
0
0
0
0
0
0
0
0
0
0
0
0
0
0
0
0
0
0
0
0
0
0
0
0
0
0
0
0
0
0
0
0
0
0
0
0
0
0
4.10601e-20
9.9063e-19
2.25694e-17
4.84163e-16
9.7478e-15
1.83511e-13
3.21679e-12
5.22494e-11
7.81961e-10
1.07116e-08
1.33249e-07
1.49098e-06
1.47644e-05
0.000126876
0.00092826
0.00564348
0.0276142
0.104258
0.288069
0.554812
0.768255
0.92004
1
0.999999
0.999995
0.999956
0.999681
0.998043
0.990087
0.960037
0.877324
0.724644
0.535399
0.29436
0.0793041
0.00488061
0.000128918
3.08747e-19
2.67082e-19
2.21801e-19
1.77065e-19
1.35875e-19
1.00224e-19
7.10583e-20
4.84238e-20
3.1717e-20
1.99665e-20
1.20804e-20
0
0
0
0
0
0
0
0
0
0
0
0
0
0
0
0
0
0
0
0
0
0
0
0
0
0
0
0
0
0
0
0
0
0
0
0
0
0
0
0
0
0
0
0
0
0
0
0
0
0
0
0
1.11928e-20
2.81089e-19
6.66887e-18
1.49052e-16
3.12841e-15
6.14395e-14
1.12444e-12
1.90876e-11
2.98909e-10
4.29089e-09
5.6043e-08
6.60028e-07
6.93301e-06
6.40672e-05
0.000511817
0.00345677
0.0191644
0.0837888
0.273317
0.618201
0.912511
1
1
1
1
1
1
0.999995
0.999959
0.999683
0.997905
0.988434
0.948419
0.821938
0.549443
0.208713
0.0239707
0.000933354
1.72311e-18
1.48386e-18
1.2267e-18
9.74849e-19
7.44702e-19
5.4684e-19
3.85973e-19
2.61856e-19
1.70751e-19
1.07017e-19
6.44636e-20
3.732e-20
2.07646e-20
1.11033e-20
0
0
0
0
0
0
0
0
0
0
0
0
0
0
0
0
0
0
0
0
0
0
0
0
0
0
0
0
0
0
0
0
0
0
0
0
0
0
0
0
0
0
0
0
0
0
0
0
0
1.91818e-20
4.86727e-19
1.16677e-17
2.63476e-16
5.58655e-15
1.10815e-13
2.04777e-12
3.50833e-11
5.54138e-10
8.01629e-09
1.05381e-07
1.24705e-06
1.31307e-05
0.000120863
0.000951225
0.0062439
0.0330792
0.13521
0.40052
0.792987
1
1
1
1
1
1
1
0.999999
0.999993
0.999934
0.999479
0.996485
0.980521
0.914749
0.721678
0.372772
0.0877924
0.00552371
9.28135e-18
7.9702e-18
6.55996e-18
5.19035e-18
3.94769e-18
2.88621e-18
2.02833e-18
1.37014e-18
8.89598e-19
5.55157e-19
3.32981e-19
1.91953e-19
1.06349e-19
5.66269e-20
2.89772e-20
1.42503e-20
0
0
0
0
0
0
0
0
0
0
0
0
0
0
0
0
0
0
0
0
0
0
0
0
0
0
0
0
0
0
0
0
0
0
0
0
0
0
0
0
0
0
0
0
0
0
0
7.04687e-20
1.80502e-18
4.35584e-17
9.87147e-16
2.09338e-14
4.13705e-13
7.58347e-12
1.28239e-10
1.98787e-09
2.80358e-08
3.56522e-07
4.0435e-06
4.03491e-05
0.000348115
0.00253789
0.0151695
0.0713222
0.248832
0.594725
0.904273
1
1
1
1
1
1
1
1
0.999997
0.999974
0.999783
0.998461
0.990897
0.956631
0.840784
0.575035
0.224193
0.0255544
4.85184e-17
4.13806e-17
3.39142e-17
2.67199e-17
2.02369e-17
1.47332e-17
1.03105e-17
6.93563e-18
4.48436e-18
2.78684e-18
1.66461e-18
9.55635e-19
5.27278e-19
2.79606e-19
1.42496e-19
6.97911e-20
3.28496e-20
1.48588e-20
0
0
0
0
0
0
0
0
0
0
0
0
0
0
0
0
0
0
0
0
0
0
0
0
0
0
0
0
0
0
0
0
0
0
0
0
0
0
0
0
0
0
0
0
0
1.15383e-19
2.99179e-18
7.30813e-17
1.67635e-15
3.59761e-14
7.19343e-13
1.33364e-11
2.27975e-10
3.5697e-09
5.08013e-08
6.50906e-07
7.42209e-06
7.42297e-05
0.000636784
0.00455326
0.0262336
0.116234
0.370573
0.776589
1
1
1
1
1
1
1
1
1
1
0.999996
0.999958
0.999643
0.9974
0.984467
0.926899
0.744637
0.391005
0.0865194
2.44411e-16
2.07637e-16
1.69475e-16
1.32977e-16
1.00302e-16
7.27261e-17
5.06882e-17
3.39585e-17
2.18677e-17
1.35351e-17
8.05222e-18
4.60418e-18
2.53024e-18
1.3364e-18
6.78373e-19
3.30938e-19
1.55154e-19
6.99054e-20
3.02678e-20
1.2594e-20
0
0
0
0
0
0
0
0
0
0
0
0
0
0
0
0
0
0
0
0
0
0
0
0
0
0
0
0
0
0
0
0
0
0
0
0
0
0
0
0
0
0
1.5444e-20
4.30401e-19
1.13e-17
2.78599e-16
6.42696e-15
1.38155e-13
2.75431e-12
5.06483e-11
8.53587e-10
1.3085e-08
1.808e-07
2.227e-06
2.41196e-05
0.00022572
0.0017851
0.0115792
0.0590574
0.222772
0.568972
0.895259
1
1
1
1
1
1
1
1
1
1
0.999998
0.999984
0.999854
0.998873
0.992776
0.962723
0.852218
0.577637
0.194371
1.19019e-15
1.00675e-15
8.18461e-16
6.39662e-16
4.8058e-16
3.47082e-16
2.40957e-16
1.60795e-16
1.0314e-16
6.35898e-17
3.76831e-17
2.14632e-17
1.17495e-17
6.18181e-18
3.12588e-18
1.51908e-18
7.09471e-19
3.18437e-19
1.37354e-19
5.6935e-20
2.2679e-20
0
0
0
0
0
0
0
0
0
0
0
0
0
0
0
0
0
0
0
0
0
0
0
0
0
0
0
0
0
0
0
0
0
0
0
0
0
0
0
0
0
2.09773e-20
5.89262e-19
1.55946e-17
3.87562e-16
9.01204e-15
1.95262e-13
3.92332e-12
7.26978e-11
1.23424e-09
1.90516e-08
2.64898e-07
3.28008e-06
3.56573e-05
0.000334126
0.00263753
0.0169988
0.0853978
0.311748
0.741012
1
1
1
1
1
1
1
1
1
1
1
1
0.999997
0.999967
0.999684
0.997481
0.983571
0.91651
0.691903
0.261198
5.59871e-15
4.71603e-15
3.81937e-15
2.97361e-15
2.22557e-15
1.60122e-15
1.1074e-15
7.36186e-16
4.70428e-16
2.88942e-16
1.7058e-16
9.67919e-17
5.27876e-17
2.76694e-17
1.3939e-17
6.74873e-18
3.14022e-18
1.40424e-18
6.03465e-19
2.49224e-19
9.89102e-20
3.77132e-20
1.37642e-20
0
0
0
0
0
0
0
0
0
0
0
0
0
0
0
0
0
0
0
0
0
0
0
0
0
0
0
0
0
0
0
0
0
0
0
0
0
0
0
1.08526e-20
3.13047e-19
8.51944e-18
2.17982e-16
5.22463e-15
1.16822e-13
2.42535e-12
4.64952e-11
8.17763e-10
1.30949e-08
1.89159e-07
2.43721e-06
2.76164e-05
0.000270264
0.00223016
0.0150157
0.0786954
0.298789
0.73312
0.999996
1
1
1
1
1
1
1
1
1
1
1
0.999998
0.999974
0.999742
0.997847
0.985353
0.922509
0.703431
0.268194
2.5427e-14
2.13405e-14
1.72193e-14
1.33569e-14
9.96005e-15
7.13957e-15
4.91957e-15
3.25848e-15
2.07457e-15
1.26956e-15
7.46765e-16
4.22192e-16
2.29415e-16
1.19815e-16
6.01407e-17
2.90127e-17
1.34512e-17
5.99345e-18
2.56644e-18
1.05613e-18
4.17656e-19
1.58688e-19
5.77348e-20
1.93496e-20
0
0
0
0
0
0
0
0
0
0
0
0
0
0
0
0
0
0
0
0
0
0
0
0
0
0
0
0
0
0
0
0
0
0
0
0
0
0
0
1.4398e-19
4.09131e-18
1.09421e-16
2.7432e-15
6.41941e-14
1.39548e-12
2.80233e-11
5.16478e-10
8.66876e-09
1.31277e-07
1.77338e-06
2.10672e-05
0.000216113
0.00186855
0.0131725
0.0721767
0.285633
0.724856
0.999899
1
1
1
1
1
1
1
1
1
1
1
0.999998
0.999978
0.999774
0.998042
0.986242
0.925253
0.708158
0.2709
1.11522e-13
9.32689e-14
7.49901e-14
5.79627e-14
4.30685e-14
3.07628e-14
2.11221e-14
1.39407e-14
8.84415e-15
5.39317e-15
3.1611e-15
1.78086e-15
9.64295e-16
5.01846e-16
2.51017e-16
1.2067e-16
5.5751e-17
2.47545e-17
1.05632e-17
4.33185e-18
1.70716e-18
6.46417e-19
2.34466e-19
7.8518e-20
3.5608e-20
0
0
0
0
0
0
0
0
0
0
0
0
0
0
0
0
0
0
0
0
0
0
0
0
0
0
0
0
0
0
0
0
0
0
0
0
0
0
6.31492e-20
1.87498e-18
5.26265e-17
1.38557e-15
3.40601e-14
7.77912e-13
1.64151e-11
3.17933e-10
5.60825e-09
8.9259e-08
1.26716e-06
1.58175e-05
0.000170444
0.00154723
0.0114421
0.0656721
0.271407
0.713879
0.998086
0.999992
1
1
1
1
1
1
1
1
1
1
0.999998
0.999973
0.999727
0.997653
0.983814
0.915029
0.684485
0.255369
4.72301e-13
3.93651e-13
3.1542e-13
2.42966e-13
1.79915e-13
1.28069e-13
8.76326e-14
5.764e-14
3.64424e-14
2.21467e-14
1.29365e-14
7.26314e-15
3.91943e-15
2.03284e-15
1.01335e-15
4.85489e-16
2.23543e-16
9.89219e-17
4.20696e-17
1.71942e-17
6.75342e-18
2.54871e-18
9.21706e-19
3.08439e-19
1.40329e-19
0
0
0
0
0
0
0
0
0
0
0
0
0
0
0
0
0
0
0
0
0
0
0
0
0
0
0
0
0
0
0
0
0
0
0
0
0
0
2.75814e-20
8.2191e-19
2.41423e-17
6.68274e-16
1.72802e-14
4.1517e-13
9.21515e-12
1.87712e-10
3.48155e-09
5.824e-08
8.68522e-07
1.13792e-05
0.000128543
0.00122183
0.00945412
0.0567307
0.244887
0.671768
0.975089
0.999826
0.999999
1
1
1
1
1
1
1
1
0.999999
0.999994
0.999941
0.999443
0.995549
0.97177
0.868094
0.583461
0.191085
1.93108e-12
1.60421e-12
1.28118e-12
9.83626e-13
7.25966e-13
5.15059e-13
3.51271e-13
2.30284e-13
1.45114e-13
8.78971e-14
5.11737e-14
2.86365e-14
1.54023e-14
7.9622e-15
3.95602e-15
1.88908e-15
8.66973e-16
3.82396e-16
1.62095e-16
6.60334e-17
2.58517e-17
9.7249e-18
3.50668e-18
1.17271e-18
5.35322e-19
0
0
0
0
0
0
0
0
0
0
0
0
0
0
0
0
0
0
0
0
0
0
0
0
0
0
0
0
0
0
0
0
0
0
0
0
0
0
1.45257e-20
2.82747e-19
8.02762e-18
2.27435e-16
6.05324e-15
1.49698e-13
3.41863e-12
7.16274e-11
1.3665e-09
2.35249e-08
3.61483e-07
4.89127e-06
5.72946e-05
0.000567637
0.00460976
0.0293954
0.138218
0.436156
0.82044
0.997186
0.999982
0.999996
0.999998
0.999999
1
1
1
1
0.999999
0.999995
0.999972
0.999809
0.998541
0.989771
0.941574
0.761572
0.381981
0.0709202
7.62154e-12
6.31144e-12
5.02455e-12
3.84538e-12
2.82906e-12
2.00078e-12
1.36019e-12
8.88863e-13
5.58335e-13
3.37111e-13
1.9564e-13
1.0913e-13
5.85092e-14
3.015e-14
1.49324e-14
7.10786e-15
3.25171e-15
1.42969e-15
6.04115e-16
2.45324e-16
9.57399e-17
3.59028e-17
1.29096e-17
4.31472e-18
1.97639e-18
0
0
0
0
0
0
0
0
0
0
0
0
0
0
0
0
0
0
0
0
0
0
0
0
0
0
0
0
0
0
0
0
0
0
0
0
0
0
2.65052e-20
1.09505e-19
9.47711e-19
1.89417e-17
4.5787e-16
1.06746e-14
2.32327e-13
4.70656e-12
8.89408e-11
1.57342e-09
2.61139e-08
4.05191e-07
5.79907e-06
7.32839e-05
0.000780074
0.00674981
0.0451633
0.216025
0.645888
0.9687
0.999673
0.999922
0.999955
0.999989
0.999994
0.999998
0.999997
0.999995
0.999989
0.999958
0.999812
0.999173
0.995653
0.976748
0.887234
0.613596
0.206786
3.38072e-11
2.90326e-11
2.39691e-11
1.90237e-11
1.45147e-11
1.06459e-11
7.50597e-12
5.08713e-12
3.31414e-12
2.07537e-12
1.24921e-12
7.22738e-13
4.0191e-13
2.14817e-13
1.10355e-13
5.44874e-14
2.58565e-14
1.17925e-14
5.16892e-15
2.17743e-15
8.8152e-16
3.4297e-16
1.28225e-16
4.5979e-17
1.53595e-17
7.06053e-18
0
0
0
0
0
0
0
0
0
0
0
0
0
0
0
0
0
0
0
0
0
0
0
0
0
0
0
0
0
0
0
0
0
0
0
0
0
2.82019e-20
9.86053e-20
3.33619e-19
1.13558e-18
5.17651e-18
6.27991e-17
1.48892e-15
3.84843e-14
9.51587e-13
2.19586e-11
4.66543e-10
9.00678e-09
1.55764e-07
2.37536e-06
3.13233e-05
0.000348614
0.00317344
0.022601
0.117857
0.406108
0.803922
0.995318
0.998806
0.999327
0.999829
0.999901
0.999968
0.999955
0.999935
0.999881
0.99963
0.998594
0.995481
0.98375
0.942409
0.784237
0.406577
0.0775976
1.24641e-10
1.06727e-10
8.78556e-11
6.95251e-11
5.28907e-11
3.86789e-11
2.71904e-11
1.83737e-11
1.19346e-11
7.45148e-12
4.47189e-12
2.57957e-12
1.43022e-12
7.62164e-13
3.90373e-13
1.92172e-13
9.09221e-14
4.13441e-14
1.80682e-14
7.58872e-15
3.06314e-15
1.18823e-15
4.42934e-16
1.58403e-16
5.28913e-17
2.44025e-17
0
0
0
0
0
0
0
0
0
0
0
0
0
0
0
0
0
0
0
0
0
0
0
0
0
0
0
0
0
0
0
0
0
0
0
0
2.83724e-20
1.03304e-19
3.62271e-19
1.22359e-18
3.98265e-18
1.25658e-17
4.05268e-17
1.88191e-16
2.30173e-15
4.81893e-14
1.05999e-12
2.23758e-11
4.51486e-10
8.73209e-09
1.60691e-07
2.68152e-06
3.86181e-05
0.000467402
0.00459151
0.0347715
0.186942
0.616434
0.952791
0.986069
0.992278
0.997853
0.99878
0.999594
0.999465
0.999287
0.998875
0.997144
0.990626
0.975824
0.934675
0.849894
0.622024
0.223749
4.9915e-10
4.43348e-10
3.78571e-10
3.10762e-10
2.45233e-10
1.86033e-10
1.35661e-10
9.50964e-11
6.4078e-11
4.15031e-11
2.58389e-11
1.54625e-11
8.89382e-12
4.91696e-12
2.61273e-12
1.33438e-12
6.54995e-13
3.09007e-13
1.40108e-13
6.10542e-14
2.55693e-14
1.02913e-14
3.98068e-15
1.47963e-15
5.2777e-16
1.76156e-16
8.15799e-17
0
0
0
0
0
0
0
0
0
0
0
0
0
0
0
0
0
0
0
0
0
0
0
0
0
0
0
0
0
0
0
0
0
0
0
2.62228e-20
9.95013e-20
3.63611e-19
1.2796e-18
4.33624e-18
1.4149e-17
4.44573e-17
1.34681e-16
3.99152e-16
1.33883e-15
1.02408e-14
2.1524e-13
5.53888e-12
1.35083e-10
2.99711e-09
5.9488e-08
1.03846e-06
1.5634e-05
0.000198194
0.00204762
0.0164459
0.0955185
0.356469
0.714216
0.886568
0.936967
0.979271
0.988295
0.995766
0.994802
0.993598
0.991185
0.981894
0.949374
0.892585
0.769317
0.608762
0.354724
0.0849039
1.71732e-09
1.52129e-09
1.29555e-09
1.06064e-09
8.34737e-10
6.31517e-10
4.59271e-10
3.21064e-10
2.15748e-10
1.39357e-10
8.65216e-11
5.16335e-11
2.9617e-11
1.63285e-11
8.65251e-12
4.40676e-12
2.15711e-12
1.01484e-12
4.58864e-13
1.99401e-13
8.32769e-14
3.34246e-14
1.28928e-14
4.77908e-15
1.70032e-15
5.67342e-16
2.63761e-16
0
0
0
0
0
0
0
0
0
0
0
0
0
0
0
0
0
0
0
0
0
0
0
0
0
0
0
0
0
0
0
0
0
0
2.22549e-20
8.80249e-20
3.35283e-19
1.22974e-18
4.34294e-18
1.47671e-17
4.83414e-17
1.52347e-16
4.6219e-16
1.34999e-15
3.80298e-15
1.05138e-14
3.29948e-14
2.13191e-13
3.39785e-12
7.09208e-11
1.57068e-09
3.34028e-08
6.24672e-07
1.00476e-05
0.000135533
0.00148016
0.0124226
0.0737069
0.266992
0.462481
0.682447
0.859382
0.919256
0.965994
0.961039
0.955382
0.945473
0.910578
0.795898
0.647753
0.420316
0.217366
0.0901532
6.19981e-09
5.69839e-09
5.03512e-09
4.27703e-09
3.49254e-09
2.74157e-09
2.06874e-09
1.50057e-09
1.04626e-09
7.01219e-10
4.51739e-10
2.79727e-10
1.6649e-10
9.52449e-11
5.23708e-11
2.76773e-11
1.40585e-11
6.86322e-12
3.22022e-12
1.45213e-12
6.29339e-13
2.62128e-13
1.04927e-13
4.03647e-14
1.49223e-14
5.29603e-15
1.76664e-15
8.24596e-16
0
0
0
0
0
0
0
0
0
0
0
0
0
0
0
0
0
0
0
0
0
0
0
0
0
0
0
0
0
0
0
0
0
1.73358e-20
7.14936e-20
2.83908e-19
1.08555e-18
3.99624e-18
1.41632e-17
4.83225e-17
1.58707e-16
5.01733e-16
1.52673e-15
4.47135e-15
1.26034e-14
3.41926e-14
8.93372e-14
2.25672e-13
5.60762e-13
1.4194e-12
4.03672e-12
3.62466e-11
7.88671e-10
1.79778e-08
3.64499e-07
6.36212e-06
9.30866e-05
0.00110162
0.0099998
0.0639
0.246259
0.432268
0.647869
0.806835
0.79272
0.777828
0.754683
0.679818
0.446322
0.234831
0.0986422
2.10162e-08
2.08501e-08
1.98863e-08
1.82341e-08
1.60727e-08
1.36194e-08
1.1094e-08
8.68704e-09
6.53879e-09
4.73108e-09
3.29043e-09
2.19973e-09
1.41351e-09
8.73055e-10
5.18305e-10
2.95751e-10
1.62203e-10
8.55016e-11
4.33181e-11
2.10929e-11
9.8712e-12
4.43982e-12
1.91918e-12
7.97292e-13
3.1832e-13
1.22138e-13
4.50358e-14
1.59452e-14
5.31785e-15
2.49228e-15
0
0
0
0
0
0
0
0
0
0
0
0
0
0
0
0
0
0
0
0
0
0
0
0
0
0
0
0
0
0
0
0
1.2389e-20
5.32869e-20
2.20675e-19
8.79838e-19
3.37711e-18
1.24783e-17
4.43822e-17
1.51943e-16
5.0067e-16
1.58781e-15
4.84618e-15
1.42343e-14
4.02336e-14
1.09431e-13
2.86406e-13
7.21359e-13
1.74963e-12
4.10018e-12
9.39134e-12
2.1061e-11
4.60053e-11
1.07684e-10
5.5096e-10
9.50528e-09
2.03598e-07
3.87299e-06
6.18637e-05
0.000798079
0.00786948
0.054144
0.218035
0.336984
0.326976
0.316696
0.301411
0.253658
0.107931
5.92038e-08
6.34074e-08
6.52872e-08
6.46258e-08
6.14987e-08
5.62599e-08
4.94763e-08
4.18268e-08
3.3991e-08
2.65532e-08
1.99392e-08
1.43922e-08
9.98557e-09
6.6594e-09
4.26883e-09
2.63019e-09
1.55763e-09
8.86617e-10
4.85058e-10
2.55055e-10
1.28899e-10
6.26085e-11
2.9227e-11
1.31127e-11
5.65401e-12
2.34299e-12
9.33096e-13
3.57126e-13
1.31354e-13
4.63979e-14
1.54716e-14
7.28106e-15
0
0
0
0
0
0
0
0
0
0
0
0
0
0
0
0
0
0
0
0
0
0
0
0
0
0
0
0
0
0
0
0
3.64299e-20
1.57375e-19
6.54463e-19
2.61989e-18
1.0095e-17
3.74395e-17
1.33639e-16
4.59087e-16
1.51773e-15
4.8285e-15
1.47819e-14
4.3544e-14
1.23422e-13
3.36591e-13
8.83184e-13
2.22977e-12
5.41945e-12
1.27174e-11
2.91321e-11
6.52406e-11
1.41182e-10
2.9385e-10
5.88224e-10
1.13244e-09
2.09665e-09
3.73307e-09
6.39175e-09
1.05239e-08
1.66618e-08
2.53656e-08
3.71311e-08
5.22621e-08
7.07266e-08
9.20271e-08
1.15127e-07
1.3847e-07
1.60121e-07
1.78008e-07
1.9025e-07
1.95477e-07
1.93084e-07
1.83344e-07
1.67359e-07
1.46856e-07
1.23874e-07
1.00442e-07
7.82857e-08
5.86519e-08
4.22382e-08
2.92379e-08
1.94535e-08
1.24411e-08
7.64744e-09
4.51823e-09
2.56573e-09
1.40035e-09
7.3458e-10
3.70352e-10
1.79456e-10
8.35726e-11
3.74048e-11
1.60895e-11
6.65128e-12
2.64247e-12
1.00891e-12
3.70191e-13
1.30465e-13
4.34983e-14
2.05558e-14
0
0
0
0
0
0
0
0
0
0
0
0
0
0
0
0
0
0
0
0
0
0
0
0
0
0
0
0
0
0
0
2.28326e-20
1.02923e-19
4.46573e-19
1.86497e-18
7.49594e-18
2.89959e-17
1.0794e-16
3.8667e-16
1.33289e-15
4.42107e-15
1.41098e-14
4.33267e-14
1.28002e-13
3.63825e-13
9.94867e-13
2.61712e-12
6.62338e-12
1.61327e-11
3.79125e-11
8.68672e-11
1.94389e-10
4.20215e-10
8.73622e-10
1.74669e-09
3.35839e-09
6.20956e-09
1.10406e-08
1.8876e-08
3.10318e-08
4.90535e-08
7.45573e-08
1.08958e-07
1.53095e-07
2.06821e-07
2.68625e-07
3.35436e-07
4.02695e-07
4.64769e-07
5.15687e-07
5.50067e-07
5.6405e-07
5.56014e-07
5.26882e-07
4.79948e-07
4.20263e-07
3.53744e-07
2.86213e-07
2.22597e-07
1.66407e-07
1.19575e-07
8.25886e-08
5.48283e-08
3.49857e-08
2.14571e-08
1.26485e-08
7.16627e-09
3.90235e-09
2.04237e-09
1.02733e-09
4.96651e-10
2.30755e-10
1.0304e-10
4.42195e-11
1.82375e-11
7.22869e-12
2.75353e-12
1.00797e-12
3.54456e-13
1.18159e-13
5.60614e-14
0
0
0
0
0
0
0
0
0
0
0
0
0
0
0
0
0
0
0
0
0
0
0
0
0
0
0
0
0
0
1.31121e-20
6.16958e-20
2.79386e-19
1.21758e-18
5.1064e-18
2.0608e-17
8.00277e-17
2.99028e-16
1.07506e-15
3.71866e-15
1.23753e-14
3.9621e-14
1.22034e-13
3.61585e-13
1.03062e-12
2.82574e-12
7.45247e-12
1.89064e-11
4.61514e-11
1.08625e-10
2.48975e-10
5.56801e-10
1.20253e-09
2.49753e-09
4.98809e-09
9.57971e-09
1.76911e-08
3.14145e-08
5.36374e-08
8.80558e-08
1.38993e-07
2.10941e-07
3.07789e-07
4.31782e-07
5.82349e-07
7.551e-07
9.41279e-07
1.12803e-06
1.29957e-06
1.43931e-06
1.5324e-06
1.56838e-06
1.54307e-06
1.45937e-06
1.32674e-06
1.15943e-06
9.73943e-07
7.86406e-07
6.10351e-07
4.55331e-07
3.265e-07
2.25031e-07
1.49074e-07
9.49195e-08
5.80895e-08
3.41684e-08
1.93166e-08
1.04957e-08
5.48104e-09
2.75093e-09
1.32696e-09
6.1517e-10
2.74084e-10
1.1736e-10
4.82952e-11
1.90997e-11
7.25915e-12
2.6514e-12
9.30387e-13
3.10049e-13
1.4761e-13
0
0
0
0
0
0
0
0
0
0
0
0
0
0
0
0
0
0
0
0
0
0
0
0
0
0
0
0
0
0
3.38778e-20
1.60172e-19
7.28683e-19
3.18975e-18
1.34345e-17
5.44398e-17
2.12239e-16
7.9603e-16
2.87222e-15
9.9695e-15
3.32877e-14
1.06914e-13
3.30304e-13
9.81544e-13
2.8055e-12
7.71269e-12
2.03932e-11
5.18621e-11
1.26878e-10
2.99111e-10
6.85906e-10
1.53319e-09
3.3086e-09
6.86561e-09
1.3699e-08
2.62822e-08
4.84832e-08
8.59932e-08
1.46647e-07
2.40442e-07
3.79022e-07
5.74422e-07
8.36953e-07
1.17238e-06
1.57878e-06
2.0439e-06
2.54374e-06
3.04337e-06
3.50026e-06
3.86993e-06
4.113e-06
4.20203e-06
4.12669e-06
3.89564e-06
3.53497e-06
3.08332e-06
2.58506e-06
2.08324e-06
1.61368e-06
1.20144e-06
8.59778e-07
5.91382e-07
3.90969e-07
2.4843e-07
1.51723e-07
8.90585e-08
5.02429e-08
2.72424e-08
1.41966e-08
7.11024e-09
3.42251e-09
1.58329e-09
7.03924e-10
3.00774e-10
1.23509e-10
4.87414e-11
1.84856e-11
6.73758e-12
2.35944e-12
7.8568e-13
3.74783e-13
0
0
0
0
0
0
0
0
0
0
0
0
0
0
0
0
0
0
0
0
0
0
0
0
0
0
0
0
0
1.70305e-20
8.40969e-20
3.9953e-19
1.82608e-18
8.02923e-18
3.39623e-17
1.38189e-16
5.4087e-16
2.03628e-15
7.37392e-15
2.56839e-14
8.6043e-14
2.77236e-13
8.59122e-13
2.56047e-12
7.33897e-12
2.02298e-11
5.36269e-11
1.36711e-10
3.35207e-10
7.91576e-10
1.81627e-09
4.05837e-09
8.75203e-09
1.81475e-08
3.61798e-08
6.93504e-08
1.27807e-07
2.26453e-07
3.85753e-07
6.31744e-07
9.94644e-07
1.5055e-06
2.19066e-06
3.06439e-06
4.1208e-06
5.32699e-06
6.61972e-06
7.90768e-06
9.08041e-06
1.00231e-05
1.0635e-05
1.08469e-05
1.0634e-05
1.00211e-05
9.07716e-06
7.90312e-06
6.61389e-06
5.32012e-06
4.11327e-06
3.05668e-06
2.18327e-06
1.49883e-06
9.88973e-07
6.27189e-07
3.82289e-07
2.23954e-07
1.26095e-07
6.82346e-08
3.54875e-08
1.77382e-08
8.52118e-09
3.9341e-09
1.7456e-09
7.44373e-10
3.05059e-10
1.20149e-10
4.54779e-11
1.65431e-11
5.78223e-12
1.92203e-12
9.1552e-13
0
0
0
0
0
0
0
0
0
0
0
0
0
0
0
0
0
0
0
0
0
0
0
0
0
0
0
0
0
4.04123e-20
2.00572e-19
9.57536e-19
4.39698e-18
1.94203e-17
8.24987e-17
3.37067e-16
1.3245e-15
5.00545e-15
1.8192e-14
6.35851e-14
2.13726e-13
6.90842e-13
2.14739e-12
6.41866e-12
1.84491e-11
5.0991e-11
1.35517e-10
3.46317e-10
8.51071e-10
2.0133e-09
4.62274e-09
1.03268e-08
2.22578e-08
4.61228e-08
9.18877e-08
1.75994e-07
3.24066e-07
5.73662e-07
9.76243e-07
1.59711e-06
2.51177e-06
3.79741e-06
5.51891e-06
7.7103e-06
1.03547e-05
1.33673e-05
1.65879e-05
1.97866e-05
2.26873e-05
2.50045e-05
2.64895e-05
2.69742e-05
2.6402e-05
2.4839e-05
2.24615e-05
1.9523e-05
1.63099e-05
1.30965e-05
1.01077e-05
7.49786e-06
5.34577e-06
3.66325e-06
2.4127e-06
1.52728e-06
9.29199e-07
5.4334e-07
3.05354e-07
1.64932e-07
8.56188e-08
4.27166e-08
2.04826e-08
9.43913e-09
4.18056e-09
1.77948e-09
7.27952e-10
2.86197e-10
1.08137e-10
3.92677e-11
1.37018e-11
4.53708e-12
2.14297e-12
0
0
0
0
0
0
0
0
0
0
0
0
0
0
0
0
0
0
0
0
0
0
0
0
0
0
0
0
1.77619e-20
9.21332e-20
4.59613e-19
2.20499e-18
1.0173e-17
4.51344e-17
1.92565e-16
7.90034e-16
3.11678e-15
1.18236e-14
4.31292e-14
1.51273e-13
5.10169e-13
1.65434e-12
5.15803e-12
1.54628e-11
4.45692e-11
1.23514e-10
3.29098e-10
8.4307e-10
2.07656e-09
4.92128e-09
1.13088e-08
2.52596e-08
5.44199e-08
1.12711e-07
2.24415e-07
4.29539e-07
7.90344e-07
1.39793e-06
2.37688e-06
3.88486e-06
6.10359e-06
9.21793e-06
1.33818e-05
1.86735e-05
2.50474e-05
3.22939e-05
4.0022e-05
4.7675e-05
5.45877e-05
6.0077e-05
6.35517e-05
6.46174e-05
6.31499e-05
5.93189e-05
5.35562e-05
4.64749e-05
3.87631e-05
3.10747e-05
2.39432e-05
1.77314e-05
1.26207e-05
8.63389e-06
5.67686e-06
3.58746e-06
2.17892e-06
1.27195e-06
7.13626e-07
3.84808e-07
1.99428e-07
9.93342e-08
4.75532e-08
2.1879e-08
9.67481e-09
4.11172e-09
1.67947e-09
6.59302e-10
2.4875e-10
9.02005e-11
3.14311e-11
1.03294e-11
4.77489e-12
0
0
0
0
0
0
0
0
0
0
0
0
0
0
0
0
0
0
0
0
0
0
0
0
0
0
0
0
3.86974e-20
2.01808e-19
1.01193e-18
4.87876e-18
2.26155e-17
1.00794e-16
4.3191e-16
1.77939e-15
7.04795e-15
2.6839e-14
9.82594e-14
3.45847e-13
1.17028e-12
3.80707e-12
1.19064e-11
3.5798e-11
1.03471e-10
2.87515e-10
7.68032e-10
1.97231e-09
4.86914e-09
1.15611e-08
2.65908e-08
5.93935e-08
1.27919e-07
2.64837e-07
5.27058e-07
1.00826e-06
1.85402e-06
3.27704e-06
5.56761e-06
9.0923e-06
1.42722e-05
2.15338e-05
3.12289e-05
4.35309e-05
5.83232e-05
7.51078e-05
9.29667e-05
0.000110603
0.000126474
0.000139004
0.000146841
0.000149092
0.000145497
0.000136471
0.000123031
0.000106605
8.87817e-05
7.10649e-05
5.46728e-05
4.0427e-05
2.87312e-05
1.96255e-05
1.28846e-05
8.13019e-06
4.93077e-06
2.87416e-06
1.61023e-06
8.67062e-07
4.48739e-07
2.23214e-07
1.06717e-07
4.90375e-08
2.16576e-08
9.19346e-09
3.7509e-09
1.47089e-09
5.54394e-10
2.00839e-10
6.99231e-11
2.26745e-11
1.00333e-11
0
0
0
0
0
0
0
0
0
0
0
0
0
0
0
0
0
0
0
0
0
0
0
0
0
0
0
1.78325e-20