# vtk DataFile Version 2.0
Structured output generated by Nextsim
ASCII
DATASET STRUCTURED_POINTS
DIMENSIONS 3 3 1
ORIGIN 0 0 0
SPACING 0.5 0.5 0.5
POINT_DATA 9
SCALARS interpolate DOUBLE 1
LOOKUP_TABLE default
1.06374e-08
2.66615e-07
5.22592e-07
5.39102e-09
3.34858e-06
6.69176e-06
1.44589e-10
6.43054e-06
1.28609e-05
CELL_DATA 4
SCALARS average DOUBLE 1
LOOKUP_TABLE default
1.06374e-08
5.22592e-07
1.44589e-10
1.28609e-05
