# vtk DataFile Version 2.0
Structured output generated by Nextsim
ASCII
DATASET STRUCTURED_POINTS
DIMENSIONS 101 101 1
ORIGIN 0 0 0
SPACING 0.01 0.01 0.01
POINT_DATA 10201
SCALARS interpolate DOUBLE 1
LOOKUP_TABLE default
0
0
0
0
0
0
0
0
0
0
0
0
0
0
0
0
0
0
0
0
0
0
0
0
0
0
0
0
0
0
0
0
0
0
0
0
0
0
0
0
0
0
0
0
0
0
0
0
0
0
0
0
0
0
0
0
0
0
0
0
0
0
0
0
0
0
0
0
0
0
0
0
0
0
0
0
0
0
0
0
0
0
0
0
0
0
0
0
0
0
0
0
0
0
0
0
0
0
0
0
0
0
0
0
0
0
0
0
0
0
0
0
0
0
0
0
0
0
0
0
0
0
0
0
0
0
0
0
0
0
0
0
0
0
0
0
0
0
0
0
0
0
0
0
0
0
0
0
0
0
0
0
0
0
0
0
0
0
0
0
0
0
0
0
0
0
0
0
0
0
0
0
0
0
0
0
0
0
0
0
0
0
0
0
0
0
0
0
0
0
0
0
0
0
0
0
0
0
0
0
0
0
0
0
0
0
0
0
0
0
0
0
0
0
0
0
0
0
0
0
0
0
0
0
0
0
0
0
0
0
0
0
0
0
0
0
0
0
0
0
0
0
0
0
0
0
0
0
0
0
0
0
0
0
0
0
0
0
0
0
0
0
0
0
0
0
0
0
0
0
0
0
0
0
0
0
0
0
0
0
0
0
0
0
0
0
0
0
0
0
0
0
0
0
0
0
0
0
0
0
0
0
0
0
0
0
0
0
0
0
0
0
0
0
0
0
0
0
0
0
0
0
0
0
0
0
0
0
0
0
0
0
0
0
0
0
0
0
0
0
0
0
0
0
0
0
0
0
0
0
0
0
0
0
0
0
0
0
0
0
0
0
0
0
0
0
0
0
0
0
0
0
0
0
0
0
0
0
0
0
0
0
0
0
0
0
0
0
0
0
0
0
0
0
0
0
0
0
0
0
0
0
0
0
0
0
0
0
0
0
0
0
0
0
0
0
0
0
0
0
0
0
0
0
0
0
0
0
0
0
0
0
0
0
0
0
0
0
0
0
0
0
0
0
0
0
0
0
0
0
0
0
0
0
0
0
0
0
0
0
0
0
0
0
0
0
0
0
0
0
0
0
0
0
0
0
0
0
0
0
0
0
0
0
0
0
0
0
0
0
0
0
0
0
0
0
0
0
0
0
0
0
0
0
0
0
0
0
0
0
0
0
0
0
0
0
0
0
0
0
0
0
0
0
0
0
0
0
0
0
0
0
0
0
0
0
0
0
0
0
0
0
0
0
0
0
0
0
0
0
0
0
0
0
0
0
0
0
0
0
0
0
0
0
0
0
0
0
0
1.0204e-20
2.43231e-20
4.75381e-20
6.34789e-20
3.68348e-20
0
0
0
0
0
0
0
0
0
0
0
0
0
0
0
0
0
0
0
0
0
0
0
0
0
0
0
0
0
0
0
0
0
0
0
0
0
0
0
0
0
0
0
0
0
0
0
0
0
0
0
0
0
0
0
0
0
0
0
0
0
0
0
0
0
0
0
0
0
0
0
0
0
0
0
0
0
0
0
0
0
0
0
0
0
0
0
0
0
0
0
0
0
1.6361e-20
6.54656e-20
1.90756e-19
4.81732e-19
1.08859e-18
2.03694e-18
2.63353e-18
1.50244e-18
3.23957e-19
1.83256e-19
3.85099e-20
2.03431e-20
0
0
0
0
0
0
0
0
0
0
0
0
0
0
0
0
0
0
0
0
0
0
0
0
0
0
0
0
0
0
0
0
0
0
0
0
0
0
0
0
0
0
0
0
0
0
0
0
0
0
0
0
0
0
0
0
0
0
0
0
0
0
0
0
0
0
0
0
0
0
0
0
0
0
0
0
0
0
0
0
0
0
0
0
0
0
0
2.24192e-20
1.58941e-19
8.49239e-19
3.25362e-18
8.9353e-18
2.12036e-17
4.5377e-17
8.12165e-17
1.01608e-16
5.69958e-17
1.20518e-17
6.7172e-18
1.39092e-18
7.2584e-19
3.89026e-20
0
0
0
0
0
0
0
0
0
0
0
0
0
0
0
0
0
0
0
0
0
0
0
0
0
0
0
0
0
0
0
0
0
0
0
0
0
0
0
0
0
0
0
0
0
0
0
0
0
0
0
0
0
0
0
0
0
0
0
0
0
0
0
0
0
0
0
0
0
0
0
0
0
0
0
0
0
0
0
0
0
0
0
0
1.24771e-20
1.33049e-19
1.15763e-18
7.93743e-18
4.09217e-17
1.50183e-16
3.88759e-16
8.66057e-16
1.75349e-15
2.99926e-15
3.62893e-15
2.00169e-15
4.16941e-16
2.29001e-16
4.69045e-17
2.41785e-17
1.32438e-18
0
0
0
0
0
0
0
0
0
0
0
0
0
0
0
0
0
0
0
0
0
0
0
0
0
0
0
0
0
0
0
0
0
0
0
0
0
0
0
0
0
0
0
0
0
0
0
0
0
0
0
0
0
0
0
0
0
0
0
0
0
0
0
0
0
0
0
0
0
0
0
0
0
0
0
0
0
0
0
0
0
0
0
5.19534e-20
6.38943e-19
6.57849e-18
5.52841e-17
3.66131e-16
1.82038e-15
6.40224e-15
1.56238e-14
3.2646e-14
6.24741e-14
1.02029e-13
1.19324e-13
6.47358e-14
1.33517e-14
7.22807e-15
1.47082e-15
7.48956e-16
4.20814e-17
7.98751e-20
0
0
0
0
0
0
0
0
0
0
0
0
0
0
0
0
0
0
0
0
0
0
0
0
0
0
0
0
0
0
0
0
0
0
0
0
0
0
0
0
0
0
0
0
0
0
0
0
0
0
0
0
0
0
0
0
0
0
0
0
0
0
0
0
0
0
0
0
0
0
0
0
0
0
0
0
0
0
0
0
1.14883e-20
1.84267e-19
2.55631e-18
3.02508e-17
2.99845e-16
2.42788e-15
1.55031e-14
7.42723e-14
2.5039e-13
5.76218e-13
1.12836e-12
2.03906e-12
3.17677e-12
3.58919e-12
1.91586e-12
3.93629e-13
2.10105e-13
4.26898e-14
2.1475e-14
1.24299e-15
2.60427e-18
0
0
0
0
0
0
0
0
0
0
0
0
0
0
0
0
0
0
0
0
0
0
0
0
0
0
0
0
0
0
0
0
0
0
0
0
0
0
0
0
0
0
0
0
0
0
0
0
0
0
0
0
0
0
0
0
0
0
0
0
0
0
0
0
0
0
0
0
0
0
0
0
0
0
0
0
0
0
0
3.2268e-20
5.68206e-19
8.7388e-18
1.16168e-16
1.31739e-15
1.25238e-14
9.73971e-14
5.9822e-13
2.75799e-12
8.91364e-12
1.93506e-11
3.54839e-11
6.04991e-11
8.98395e-11
9.80091e-11
5.15015e-11
1.06158e-11
5.58953e-12
1.14066e-12
5.66959e-13
3.39722e-14
7.92525e-17
1.58901e-19
0
0
0
0
0
0
0
0
0
0
0
0
0
0
0
0
0
0
0
0
0
0
0
0
0
0
0
0
0
0
0
0
0
0
0
0
0
0
0
0
0
0
0
0
0
0
0
0
0
0
0
0
0
0
0
0
0
0
0
0
0
0
0
0
0
0
0
0
0
0
0
0
0
0
0
0
0
8.10194e-20
1.55085e-18
2.60986e-17
3.82962e-16
4.85273e-15
5.24627e-14
4.76034e-13
3.541e-12
2.08537e-11
9.23464e-11
2.86093e-10
5.86132e-10
1.00577e-09
1.61658e-09
2.28626e-09
2.40726e-09
1.2463e-09
2.59913e-10
1.35092e-10
2.78801e-11
1.36961e-11
8.54502e-13
2.24207e-15
4.96965e-18
0
0
0
0
0
0
0
0
0
0
0
0
0
0
0
0
0
0
0
0
0
0
0
0
0
0
0
0
0
0
0
0
0
0
0
0
0
0
0
0
0
0
0
0
0
0
0
0
0
0
0
0
0
0
0
0
0
0
0
0
0
0
0
0
0
0
0
0
0
0
0
0
0
0
0
0
1.83982e-19
3.80209e-18
6.93793e-17
1.10989e-15
1.54456e-14
1.85357e-13
1.89771e-12
1.63326e-11
1.15574e-10
6.4984e-10
2.75655e-09
8.18235e-09
1.58276e-08
2.53987e-08
3.8456e-08
5.17575e-08
5.25794e-08
2.68541e-08
5.72423e-09
2.93991e-09
6.18639e-10
3.00499e-10
1.96549e-11
5.86916e-14
1.45066e-16
0
0
0
0
0
0
0
0
0
0
0
0
0
0
0
0
0
0
0
0
0
0
0
0
0
0
0
0
0
0
0
0
0
0
0
0
0
0
0
0
0
0
0
0
0
0
0
0
0
0
0
0
0
0
0
0
0
0
0
0
0
0
0
0
0
0
0
0
0
0
0
0
0
0
1.57359e-20
3.81187e-19
8.45813e-18
1.66413e-16
2.88024e-15
4.35401e-14
5.7065e-13
6.43454e-12
6.18652e-11
5.00906e-10
3.34773e-09
1.78678e-08
7.2317e-08
2.05473e-07
3.7544e-07
5.63105e-07
8.02624e-07
1.02734e-06
1.00674e-06
5.082e-07
1.12125e-07
5.69864e-08
1.23482e-08
5.93493e-09
4.10304e-10
1.41401e-12
3.93642e-15
0
0
0
0
0
0
0
0
0
0
0
0
0
0
0
0
0
0
0
0
0
0
0
0
0
0
0
0
0
0
0
0
0
0
0
0
0
0
0
0
0
0
0
0
0
0
0
0
0
0
0
0
0
0
0
0
0
0
0
0
0
0
0
0
0
0
0
0
0
0
0
0
0
3.01092e-20
7.41741e-19
1.71645e-17
3.62501e-16
6.76095e-15
1.10425e-13
1.56757e-12
1.92008e-11
2.01548e-10
1.80076e-09
1.35708e-08
8.48387e-08
4.2642e-07
1.63719e-06
4.44459e-06
7.67436e-06
1.07537e-05
1.44218e-05
1.75459e-05
1.65871e-05
8.30032e-06
1.92572e-06
9.70633e-07
2.19226e-07
1.04368e-07
7.70278e-09
3.11543e-11
9.88351e-14
0
0
0
0
0
0
0
0
0
0
0
0
0
0
0
0
0
0
0
0
0
0
0
0
0
0
0
0
0
0
0
0
0
0
0
0
0
0
0
0
0
0
0
0
0
0
0
0
0
0
0
0
0
0
0
0
0
0
0
0
0
0
0
0
0
0
0
0
0
0
0
0
5.50568e-20
1.38143e-18
3.25331e-17
7.16849e-16
1.43564e-14
2.52802e-13
3.87798e-12
5.13909e-11
5.83687e-10
5.64486e-09
4.62721e-08
3.20061e-07
1.84716e-06
8.64638e-06
3.12168e-05
8.07134e-05
0.000131732
0.000172411
0.00021748
0.000251417
0.000229406
0.000114336
2.84717e-05
1.42785e-05
3.41307e-06
1.61203e-06
1.28593e-07
6.23002e-10
2.28373e-12
0
0
0
0
0
0
0
0
0
0
0
0
0
0
0
0
0
0
0
0
0
0
0
0
0
0
0
0
0
0
0
0
0
0
0
0
0
0
0
0
0
0
0
0
0
0
0
0
0
0
0
0
0
0
0
0
0
0
0
0
0
0
0
0
0
0
0
0
0
0
0
9.46017e-20
2.42357e-18
5.82288e-17
1.30774e-15
2.73518e-14
5.17642e-13
8.57579e-12
1.23074e-10
1.51492e-09
1.58403e-08
1.39642e-07
1.03457e-06
6.44923e-06
3.374e-05
0.000144751
0.000484743
0.00118679
0.00183064
0.002238
0.00265522
0.00291702
0.00257256
0.00128719
0.000353603
0.000177343
4.57544e-05
2.14921e-05
1.88234e-06
1.12049e-08
4.82545e-11
0
0
0
0
0
0
0
0
0
0
0
0
0
0
0
0
0
0
0
0
0
0
0
0
0
0
0
0
0
0
0
0
0
0
0
0
0
0
0
0
0
0
0
0
0
0
0
0
0
0
0
0
0
0
0
0
0
0
0
0
0
0
0
0
0
0
0
0
0
0
1.4869e-19
3.90124e-18
9.5926e-17
2.20298e-15
4.707e-14
9.31538e-13
1.66037e-11
2.5802e-10
3.45404e-09
3.93475e-08
3.76636e-07
2.99692e-06
1.97382e-05
0.000108312
0.000500532
0.00192209
0.00583595
0.0133797
0.0194861
0.0222676
0.0248648
0.0259837
0.0222204
0.0113227
0.00356526
0.00180332
0.000515459
0.000241743
2.37266e-05
1.79227e-07
9.25324e-10
0
0
0
0
0
0
0
0
0
0
0
0
0
0
0
0
0
0
0
0
0
0
0
0
0
0
0
0
0
0
0
0
0
0
0
0
0
0
0
0
0
0
0
0
0
0
0
0
0
0
0
0
0
0
0
0
0
0
0
0
0
0
0
0
0
0
0
0
0
2.05781e-19
5.54716e-18
1.4006e-16
3.3008e-15
7.23191e-14
1.46628e-12
2.73644e-11
4.57744e-10
6.65383e-09
8.29015e-08
8.72042e-07
7.61365e-06
5.42562e-05
0.000312383
0.00146477
0.00575678
0.0190757
0.0504163
0.105678
0.144826
0.155058
0.163343
0.16288
0.136134
0.0727123
0.0277557
0.0143716
0.00471822
0.00222375
0.000251439
2.51415e-06
1.59562e-08
0
0
0
0
0
0
0
0
0
0
0
0
0
0
0
0
0
0
0
0
0
0
0
0
0
0
0
0
0
0
0
0
0
0
0
0
0
0
0
0
0
0
0
0
0
0
0
0
0
0
0
0
0
0
0
0
0
0
0
0
0
0
0
0
0
0
0
0
2.37702e-19
6.60331e-18
1.71757e-16
4.16819e-15
9.39929e-14
1.96025e-12
3.7602e-11
6.59153e-10
1.03069e-08
1.39729e-07
1.61695e-06
1.56817e-05
0.000124631
0.000791202
0.00392164
0.0151526
0.0478045
0.128753
0.273333
0.491951
0.626937
0.633996
0.635275
0.610945
0.510638
0.305943
0.154091
0.0841085
0.0333994
0.0160063
0.00216765
3.03775e-05
2.44654e-07
0
0
0
0
0
0
0
0
0
0
0
0
0
0
0
0
0
0
0
0
0
0
0
0
0
0
0
0
0
0
0
0
0
0
0
0
0
0
0
0
0
0
0
0
0
0
0
0
0
0
0
0
0
0
0
0
0
0
0
0
0
0
0
0
0
0
0
2.1131e-19
6.06655e-18
1.63048e-16
4.08776e-15
9.52066e-14
2.05018e-12
4.0593e-11
7.34166e-10
1.20341e-08
1.75086e-07
2.20573e-06
2.36434e-05
0.000210976
0.00152321
0.00857909
0.0361182
0.110209
0.254689
0.503097
0.728297
0.898543
0.99989
0.999121
0.994256
0.970631
0.889428
0.717562
0.53146
0.326721
0.169203
0.0844054
0.014499
0.000308714
3.28864e-06
2.00412e-20
1.6955e-20
1.37889e-20
1.07804e-20
0
0
0
0
0
0
0
0
0
0
0
0
0
0
0
0
0
0
0
0
0
0
0
0
0
0
0
0
0
0
0
0
0
0
0
0
0
0
0
0
0
0
0
0
0
0
0
0
0
0
0
0
0
0
0
0
0
0
0
0
0
0
1.25206e-19
3.72565e-18
1.03788e-16
2.69716e-15
6.51178e-14
1.45367e-12
2.98404e-11
5.59594e-10
9.51222e-09
1.45183e-07
1.95645e-06
2.28075e-05
0.000225488
0.00184242
0.0120121
0.0595089
0.209258
0.480661
0.712173
0.891634
1
1
0.999999
0.999991
0.99991
0.999257
0.994986
0.973537
0.897295
0.730047
0.53773
0.294621
0.0700475
0.00255408
3.80548e-05
1.20516e-19
1.01594e-19
8.231e-20
6.41084e-20
4.80005e-20
3.45489e-20
2.39039e-20
1.5898e-20
1.01635e-20
0
0
0
0
0
0
0
0
0
0
0
0
0
0
0
0
0
0
0
0
0
0
0
0
0
0
0
0
0
0
0
0
0
0
0
0
0
0
0
0
0
0
0
0
0
0
0
0
0
0
0
0
0
0
0
0
3.56503e-20
1.10465e-18
3.20594e-17
8.68437e-16
2.18696e-14
5.0964e-13
1.09316e-11
2.1447e-10
3.82003e-09
6.12173e-08
8.72956e-07
1.09228e-05
0.000117779
0.00106914
0.00791578
0.0457151
0.192835
0.538316
0.884242
1
1
1
1
1
1
0.999999
0.999992
0.999916
0.999262
0.994643
0.969124
0.866124
0.595283
0.219025
0.0164166
0.000370007
6.99334e-19
5.87848e-19
4.74523e-19
3.68242e-19
2.74713e-19
1.9701e-19
1.35815e-19
9.00011e-20
5.73297e-20
3.51022e-20
2.06587e-20
1.16863e-20
0
0
0
0
0
0
0
0
0
0
0
0
0
0
0
0
0
0
0
0
0
0
0
0
0
0
0
0
0
0
0
0
0
0
0
0
0
0
0
0
0
0
0
0
0
0
0
0
0
0
0
0
0
6.4408e-20
2.0203e-18
5.93532e-17
1.62734e-15
4.14711e-14
9.77682e-13
2.12051e-11
4.20391e-10
7.55895e-09
1.22117e-07
1.75202e-06
2.19204e-05
0.000233723
0.00206935
0.0146887
0.0795061
0.304567
0.737894
1
1
1
1
1
1
1
1
0.999999
0.999987
0.999862
0.99875
0.990764
0.946846
0.777895
0.396441
0.0764275
0.00292314
3.91306e-18
3.28415e-18
2.64168e-18
2.04279e-18
1.51859e-18
1.08523e-18
7.45517e-19
4.92309e-19
3.12503e-19
1.90676e-19
1.11829e-19
6.3041e-20
3.41579e-20
1.7789e-20
0
0
0
0
0
0
0
0
0
0
0
0
0
0
0
0
0
0
0
0
0
0
0
0
0
0
0
0
0
0
0
0
0
0
0
0
0
0
0
0
0
0
0
0
0
0
0
0
0
0
0
3.19578e-19
1.00215e-17
2.93317e-16
7.9809e-15
2.00944e-13
4.65665e-12
9.86988e-11
1.89904e-09
3.28715e-08
5.06244e-07
6.84149e-06
7.96857e-05
0.000781051
0.00623814
0.0387824
0.175286
0.51838
0.876346
1
1
1
1
1
1
1
1
1
0.999995
0.999943
0.999457
0.995773
0.973934
0.879637
0.615945
0.231846
0.0178673
2.12035e-17
1.77126e-17
1.4199e-17
1.09427e-17
8.10706e-18
5.77391e-18
3.95306e-18
2.60163e-18
1.64587e-18
1.00086e-18
5.85022e-19
3.28688e-19
1.775e-19
9.21318e-20
4.5963e-20
2.20388e-20
1.01564e-20
0
0
0
0
0
0
0
0
0
0
0
0
0
0
0
0
0
0
0
0
0
0
0
0
0
0
0
0
0
0
0
0
0
0
0
0
0
0
0
0
0
0
0
0
0
0
0
1.63e-20
5.53106e-19
1.758e-17
5.21515e-16
1.43809e-14
3.66884e-13
8.61206e-12
1.848e-10
3.59707e-09
6.29162e-08
9.77465e-07
1.32921e-05
0.000154601
0.00149244
0.0115354
0.0678145
0.280517
0.722887
1
1
1
1
1
1
1
1
1
1
0.999999
0.999992
0.999906
0.99908
0.992666
0.954558
0.79648
0.413702
0.0782805
1.10782e-16
9.22106e-17
7.36768e-17
5.65938e-17
4.17912e-17
2.96666e-17
2.02447e-17
1.32801e-17
8.37403e-18
5.07573e-18
2.95723e-18
1.6561e-18
8.91446e-19
4.61214e-19
2.29351e-19
1.09618e-19
5.03549e-20
2.22316e-20
0
0
0
0
0
0
0
0
0
0
0
0
0
0
0
0
0
0
0
0
0
0
0
0
0
0
0
0
0
0
0
0
0
0
0
0
0
0
0
0
0
0
0
0
0
0
8.24546e-20
2.81354e-18
8.96014e-17
2.65247e-15
7.26513e-14
1.83127e-12
4.22108e-11
8.83036e-10
1.66136e-08
2.77988e-07
4.07937e-06
5.15668e-05
0.000548572
0.00475675
0.0320953
0.156995
0.497066
0.86791
1
1
1
1
1
1
1
1
1
1
1
0.999997
0.999962
0.999607
0.99669
0.977945
0.89029
0.625698
0.216305
5.58637e-16
4.633e-16
3.6901e-16
2.82554e-16
2.0799e-16
1.47182e-16
1.00121e-16
6.54704e-17
4.11536e-17
2.48659e-17
1.4442e-17
8.06241e-18
4.32626e-18
2.23132e-18
1.10613e-18
5.27028e-19
2.41347e-19
1.06224e-19
4.49335e-20
1.82673e-20
0
0
0
0
0
0
0
0
0
0
0
0
0
0
0
0
0
0
0
0
0
0
0
0
0
0
0
0
0
0
0
0
0
0
0
0
0
0
0
0
0
0
0
0
1.16161e-19
4.00055e-18
1.28607e-16
3.84337e-15
1.06275e-13
2.70428e-12
6.29184e-11
1.32824e-09
2.52064e-08
4.25107e-07
6.28004e-06
7.97587e-05
0.000850202
0.00735743
0.0491536
0.234056
0.691483
1
1
1
1
1
1
1
1
1
1
1
1
1
0.999994
0.999924
0.999179
0.992834
0.951709
0.768105
0.309981
2.7196e-15
2.24631e-15
1.7837e-15
1.36163e-15
9.99259e-16
7.04961e-16
4.78092e-16
3.11681e-16
1.95322e-16
1.17659e-16
6.81285e-17
3.79184e-17
2.02853e-17
1.04308e-17
5.15523e-18
2.44888e-18
1.11807e-18
4.90621e-19
2.06914e-19
8.38681e-20
3.26705e-20
1.22297e-20
0
0
0
0
0
0
0
0
0
0
0
0
0
0
0
0
0
0
0
0
0
0
0
0
0
0
0
0
0
0
0
0
0
0
0
0
0
0
0
0
0
0
6.13709e-20
2.18399e-18
7.26495e-17
2.24871e-15
6.44634e-14
1.7022e-12
4.11385e-11
9.03044e-10
1.78394e-08
3.1356e-07
4.83402e-06
6.41663e-05
0.000715393
0.00647187
0.0451502
0.223955
0.684619
0.999999
1
1
1
1
1
1
1
1
1
1
1
1
0.999995
0.999938
0.999307
0.993673
0.955508
0.777697
0.316498
1.27606e-14
1.05086e-14
8.32002e-15
6.3327e-15
4.63373e-15
3.25943e-15
2.204e-15
1.43263e-15
8.95158e-16
5.37651e-16
3.10405e-16
1.72257e-16
9.18832e-17
4.71087e-17
2.32147e-17
1.09955e-17
5.00556e-18
2.19011e-18
9.2098e-19
3.72219e-19
1.44578e-19
5.39656e-20
1.93195e-20
0
0
0
0
0
0
0
0
0
0
0
0
0
0
0
0
0
0
0
0
0
0
0
0
0
0
0
0
0
0
0
0
0
0
0
0
0
0
0
0
0
2.92726e-20
1.08437e-18
3.77581e-17
1.22434e-15
3.67809e-14
1.01806e-12
2.57962e-11
5.93793e-10
1.2302e-08
2.26779e-07
3.66665e-06
5.10374e-05
0.000596512
0.00565396
0.041281
0.213768
0.677545
0.999953
1
1
1
1
1
1
1
1
1
1
1
1
0.999996
0.999948
0.999392
0.994233
0.958003
0.783844
0.320634
5.77538e-14
4.74286e-14
3.74449e-14
2.84204e-14
2.07369e-14
1.45454e-14
9.80767e-15
6.35709e-15
3.96089e-15
2.37227e-15
1.36572e-15
7.55753e-16
4.01986e-16
2.05517e-16
1.00991e-16
4.76992e-17
2.16533e-17
9.44746e-18
3.96167e-18
1.59664e-18
6.18438e-19
2.30198e-19
8.21983e-20
2.73742e-20
1.25756e-20
0
0
0
0
0
0
0
0
0
0
0
0
0
0
0
0
0
0
0
0
0
0
0
0
0
0
0
0
0
0
0
0
0
0
0
0
0
0
0
1.4115e-20
5.19671e-19
1.89242e-17
6.44622e-16
2.03531e-14
5.92169e-13
1.57736e-11
3.81711e-10
8.314e-09
1.61126e-07
2.73853e-06
4.00625e-05
0.000491944
0.00489588
0.0374897
0.203098
0.668854
0.998801
0.999997
1
1
1
1
1
1
1
1
1
1
1
0.999996
0.999942
0.999313
0.993519
0.953754
0.770389
0.310787
2.52123e-13
2.06489e-13
1.62581e-13
1.23063e-13
8.9549e-14
6.2641e-14
4.21226e-14
2.72284e-14
1.69188e-14
1.01054e-14
5.80184e-15
3.20182e-15
1.69841e-15
8.65951e-16
4.24369e-16
1.99888e-16
9.04932e-17
3.93754e-17
1.64667e-17
6.61847e-18
2.55663e-18
9.49082e-19
3.38047e-19
1.12484e-19
5.17949e-20
0
0
0
0
0
0
0
0
0
0
0
0
0
0
0
0
0
0
0
0
0
0
0
0
0
0
0
0
0
0
0
0
0
0
0
0
0
0
0
0
2.4844e-19
9.10816e-18
3.25409e-16
1.08127e-14
3.31154e-13
9.28453e-12
2.36447e-10
5.41819e-09
1.10426e-07
1.97245e-06
3.02963e-05
0.000390218
0.0040706
0.0326434
0.184954
0.635232
0.979133
0.99992
1
1
1
1
1
1
1
1
1
1
0.999999
0.99999
0.999874
0.998608
0.98794
0.92388
0.683878
0.249212
1.06148e-12
8.67091e-13
6.80939e-13
5.14081e-13
3.73102e-13
2.60308e-13
1.74583e-13
1.12556e-13
6.97548e-14
4.15541e-14
2.37947e-14
1.30969e-14
6.92895e-15
3.52349e-15
1.72218e-15
8.09054e-16
3.65311e-16
1.58536e-16
6.61255e-17
2.65081e-17
1.02129e-17
3.78139e-18
1.3436e-18
4.46732e-19
2.06201e-19
0
0
0
0
0
0
0
0
0
0
0
0
0
0
0
0
0
0
0
0
0
0
0
0
0
0
0
0
0
0
0
0
0
0
0
0
0
0
0
1.89067e-20
1.31588e-19
3.1946e-18
1.1236e-16
3.83594e-15
1.21074e-13
3.49798e-12
9.17827e-11
2.16731e-09
4.55479e-08
8.40177e-07
1.33631e-05
0.000178872
0.00194887
0.0164809
0.10052
0.391567
0.804013
0.998262
0.999994
0.999999
0.999999
1
1
1
1
1
1
0.999999
0.999996
0.999964
0.999613
0.996247
0.970622
0.838865
0.464084
0.0992389
4.30947e-12
3.51153e-12
2.75076e-12
2.07151e-12
1.49965e-12
1.04365e-12
6.98191e-13
4.48993e-13
2.77553e-13
1.64924e-13
9.41993e-14
5.17166e-14
2.72914e-14
1.38429e-14
6.7488e-15
3.16242e-15
1.4243e-15
6.1654e-16
2.56506e-16
1.02566e-16
3.94159e-17
1.45572e-17
5.16028e-18
1.71452e-18
7.9336e-19
0
0
0
0
0
0
0
0
0
0
0
0
0
0
0
0
0
0
0
0
0
0
0
0
0
0
0
0
0
0
0
0
0
0
0
0
0
0
2.05221e-20
6.96295e-20
2.3144e-19
8.90085e-19
8.38401e-18
2.08275e-16
6.08652e-15
1.69212e-13
4.38733e-12
1.06281e-10
2.41127e-09
5.1082e-08
9.9731e-07
1.71568e-05
0.000247714
0.00289355
0.0259263
0.163297
0.614378
0.974216
0.999859
0.999975
0.999986
0.999997
0.999998
1
0.999999
0.999999
0.999998
0.999993
0.999962
0.999805
0.998657
0.990313
0.935689
0.708103
0.263907
1.99509e-11
1.68697e-11
1.37133e-11
1.07166e-11
8.05089e-12
5.81431e-12
4.03655e-12
2.69386e-12
1.72816e-12
1.06569e-12
6.31694e-13
3.59922e-13
1.97118e-13
1.03766e-13
5.25039e-14
2.55344e-14
1.19358e-14
5.36248e-15
2.31558e-15
9.61012e-16
3.83326e-16
1.4695e-16
5.41395e-17
1.91478e-17
6.3578e-18
2.94956e-18
0
0
0
0
0
0
0
0
0
0
0
0
0
0
0
0
0
0
0
0
0
0
0
0
0
0
0
0
0
0
0
0
0
0
0
0
0
2.26274e-20
7.98288e-20
2.71124e-19
8.8671e-19
2.80523e-18
9.11091e-18
5.05993e-17
1.02916e-15
3.3385e-14
1.0636e-12
3.11776e-11
8.27062e-10
1.95793e-08
4.07217e-07
7.29627e-06
0.00010984
0.00134359
0.0127177
0.0862827
0.368199
0.79095
0.997306
0.999487
0.999711
0.999945
0.999969
0.999993
0.99999
0.999986
0.999975
0.999915
0.999607
0.99857
0.993606
0.971644
0.855848
0.484923
0.106008
7.54676e-11
6.36671e-11
5.16361e-11
4.02595e-11
3.01754e-11
2.1742e-11
1.50592e-11
1.00266e-11
6.41719e-12
3.94795e-12
2.33468e-12
1.32711e-12
7.25103e-13
3.80806e-13
1.92225e-13
9.32644e-14
4.34924e-14
1.94938e-14
8.39771e-15
3.47696e-15
1.38359e-15
5.29152e-16
1.9449e-16
6.8634e-17
2.27759e-17
1.05946e-17
0
0
0
0
0
0
0
0
0
0
0
0
0
0
0
0
0
0
0
0
0
0
0
0
0
0
0
0
0
0
0
0
0
0
0
0
2.29596e-20
8.43692e-20
2.98438e-19
1.01614e-18
3.33012e-18
1.05045e-17
3.1914e-17
9.42093e-17
2.99025e-16
1.92841e-15
3.93994e-14
1.0955e-12
3.0178e-11
7.9848e-10
2.00988e-08
4.58061e-07
8.98448e-06
0.000147656
0.00196116
0.019935
0.141681
0.591818
0.964162
0.991958
0.995587
0.999075
0.999481
0.999877
0.999837
0.999784
0.99967
0.999105
0.996399
0.989629
0.965955
0.911472
0.717506
0.279447
3.14249e-10
2.75166e-10
2.31634e-10
1.87451e-10
1.45829e-10
1.09061e-10
7.84058e-11
5.41852e-11
3.59962e-11
2.29865e-11
1.41098e-11
8.32517e-12
4.72157e-12
2.57391e-12
1.34868e-12
6.79244e-13
3.28806e-13
1.52983e-13
6.84123e-14
2.94038e-14
1.21464e-14
4.82238e-15
1.84009e-15
6.74781e-16
2.37614e-16
7.88104e-17
3.67607e-17
0
0
0
0
0
0
0
0
0
0
0
0
0
0
0
0
0
0
0
0
0
0
0
0
0
0
0
0
0
0
0
0
0
0
0
2.14304e-20
8.20389e-20
3.02299e-19
1.07215e-18
3.65983e-18
1.20234e-17
3.80133e-17
1.15658e-16
3.38707e-16
9.58234e-16
2.76788e-15
1.39873e-14
2.84051e-13
9.05694e-12
2.75034e-10
7.4726e-09
1.78081e-07
3.64921e-06
6.27299e-05
0.000873943
0.00937766
0.0714266
0.333864
0.725145
0.913011
0.952737
0.98803
0.993381
0.998256
0.997851
0.997361
0.996441
0.992294
0.973634
0.938233
0.840649
0.705093
0.436681
0.113239
1.10663e-09
9.66995e-10
8.12316e-10
6.55993e-10
5.09261e-10
3.8005e-10
2.72643e-10
1.88017e-10
1.24634e-10
7.94173e-11
4.86431e-11
2.86385e-11
1.62068e-11
8.81565e-12
4.60912e-12
2.31623e-12
1.11877e-12
5.19383e-13
2.3175e-13
9.93871e-14
4.09651e-14
1.62281e-14
6.17849e-15
2.26073e-15
7.94426e-16
2.6337e-16
1.23195e-16
0
0
0
0
0
0
0
0
0
0
0
0
0
0
0
0
0
0
0
0
0
0
0
0
0
0
0
0
0
0
0
0
0
0
1.83953e-20
7.33742e-20
2.81696e-19
1.04087e-18
3.70144e-18
1.26672e-17
4.17168e-17
1.32203e-16
4.03135e-16
1.18284e-15
3.33937e-15
9.07459e-15
2.38628e-14
6.47812e-14
3.02512e-13
5.08591e-12
1.46086e-10
4.24388e-09
1.08554e-07
2.38354e-06
4.37688e-05
0.000648084
0.00732288
0.057606
0.264378
0.470936
0.700876
0.892564
0.940376
0.98112
0.978302
0.975168
0.970013
0.948981
0.859113
0.735291
0.495753
0.272194
0.118332
4.13965e-09
3.75531e-09
3.27497e-09
2.74564e-09
2.21282e-09
1.71439e-09
1.27681e-09
9.14099e-10
6.29075e-10
4.16148e-10
2.64621e-10
1.61743e-10
9.50272e-11
5.36641e-11
2.91292e-11
1.51976e-11
7.62117e-12
3.67333e-12
1.70171e-12
7.57696e-13
3.2425e-13
1.33364e-13
5.27187e-14
2.00287e-14
7.31295e-15
2.56461e-15
8.49885e-16
3.98706e-16
0
0
0
0
0
0
0
0
0
0
0
0
0
0
0
0
0
0
0
0
0
0
0
0
0
0
0
0
0
0
0
0
0
1.45162e-20
6.03424e-20
2.41414e-19
9.29506e-19
3.44406e-18
1.228e-17
4.21327e-17
1.39096e-16
4.41839e-16
1.35038e-15
3.97073e-15
1.1233e-14
3.05715e-14
8.00442e-14
2.01651e-13
4.89367e-13
1.14963e-12
2.65925e-12
7.81051e-12
8.48865e-11
2.32837e-09
6.40424e-08
1.52567e-06
3.04034e-05
0.000488221
0.00597429
0.0507314
0.248783
0.447653
0.67547
0.857455
0.846835
0.83587
0.819852
0.760463
0.517264
0.287952
0.126405
1.46959e-08
1.4398e-08
1.35611e-08
1.2279e-08
1.06883e-08
8.94367e-09
7.19425e-09
5.56301e-09
4.13507e-09
2.9546e-09
2.02933e-09
1.3398e-09
8.50261e-10
5.18664e-10
3.04114e-10
1.71395e-10
9.28463e-11
4.83428e-11
2.41932e-11
1.16372e-11
5.38004e-12
2.39059e-12
1.02094e-12
4.19049e-13
1.65309e-13
6.26745e-14
2.28368e-14
7.99313e-15
2.64793e-15
1.24594e-15
0
0
0
0
0
0
0
0
0
0
0
0
0
0
0
0
0
0
0
0
0
0
0
0
0
0
0
0
0
0
0
0
1.05274e-20
4.56158e-20
1.90215e-19
7.63296e-19
2.94739e-18
1.09512e-17
3.91515e-17
1.34673e-16
4.45696e-16
1.4191e-15
4.34694e-15
1.28097e-14
3.63134e-14
9.90263e-14
2.59766e-13
6.55491e-13
1.59159e-12
3.72611e-12
8.48917e-12
1.88548e-11
4.04514e-11
8.42499e-11
1.99433e-10
1.50018e-09
3.66019e-08
9.40318e-07
2.04632e-05
0.000358765
0.00478268
0.0439918
0.228963
0.374707
0.366537
0.358265
0.346585
0.304593
0.135028
4.32318e-08
4.57491e-08
4.65425e-08
4.55197e-08
4.27982e-08
3.86831e-08
3.36111e-08
2.8074e-08
2.25412e-08
1.7398e-08
1.29082e-08
9.20596e-09
6.31109e-09
4.15879e-09
2.63422e-09
1.60381e-09
9.38573e-10
5.27946e-10
2.85439e-10
1.48332e-10
7.40878e-11
3.55671e-11
1.64109e-11
7.27771e-12
3.10193e-12
1.27068e-12
5.00274e-13
1.89295e-13
6.88369e-14
2.40481e-14
7.96423e-15
3.75892e-15
0
0
0
0
0
0
0
0
0
0
0
0
0
0
0
0
0
0
0
0
0
0
0
0
0
0
0
0
0
0
0
0
3.16862e-20
1.37748e-19
5.7621e-19
2.3192e-18
8.98137e-18
3.34638e-17
1.19956e-16
4.1368e-16
1.37243e-15
4.38014e-15
1.34475e-14
3.97134e-14
1.12815e-13
3.08257e-13
8.10159e-13
2.04804e-12
4.98102e-12
1.1675e-11
2.66053e-11
5.90527e-11
1.26518e-10
2.60664e-10
5.16429e-10
9.83863e-10
1.80237e-09
3.17487e-09
5.37745e-09
8.75758e-09
1.37133e-08
2.06464e-08
2.98869e-08
4.15954e-08
5.56584e-08
7.16031e-08
8.85605e-08
1.05305e-07
1.20381e-07
1.32298e-07
1.39776e-07
1.41968e-07
1.38619e-07
1.30113e-07
1.17404e-07
1.01836e-07
8.49119e-08
6.80588e-08
5.24374e-08
3.88361e-08
2.76478e-08
1.89197e-08
1.24448e-08
7.86827e-09
4.78171e-09
2.79316e-09
1.56823e-09
8.463e-10
4.38967e-10
2.18841e-10
1.0486e-10
4.82919e-11
2.13753e-11
9.09333e-12
3.71792e-12
1.46097e-12
5.51747e-13
2.00258e-13
6.9832e-14
2.31214e-14
1.09469e-14
0
0
0
0
0
0
0
0
0
0
0
0
0
0
0
0
0
0
0
0
0
0
0
0
0
0
0
0
0
0
0
2.02175e-20
9.16489e-20
3.99731e-19
1.67739e-18
6.77183e-18
2.6301e-17
9.82686e-17
3.53201e-16
1.22118e-15
4.06139e-15
1.29926e-14
3.99788e-14
1.18322e-13
3.36818e-13
9.22159e-13
2.42822e-12
6.14955e-12
1.4981e-11
3.51576e-11
8.01429e-11
1.77789e-10
3.80601e-10
7.83472e-10
1.5508e-09
2.95161e-09
5.40162e-09
9.50482e-09
1.60809e-08
2.61586e-08
4.09122e-08
6.15198e-08
8.89399e-08
1.23621e-07
1.65193e-07
2.12222e-07
2.62112e-07
3.11222e-07
3.55254e-07
3.89838e-07
4.11248e-07
4.17053e-07
4.06575e-07
3.81021e-07
3.4325e-07
2.97249e-07
2.47442e-07
1.98001e-07
1.52298e-07
1.12603e-07
8.00264e-08
5.46685e-08
3.58969e-08
2.26563e-08
1.37445e-08
8.01443e-09
4.49174e-09
2.41965e-09
1.25279e-09
6.23437e-10
2.98186e-10
1.37076e-10
6.05629e-11
2.57171e-11
1.04955e-11
4.11665e-12
1.55182e-12
5.62201e-13
1.95697e-13
6.47825e-14
3.0769e-14
0
0
0
0
0
0
0
0
0
0
0
0
0
0
0
0
0
0
0
0
0
0
0
0
0
0
0
0
0
0
1.18443e-20
5.60022e-20
2.5474e-19
1.11473e-18
4.69254e-18
1.9002e-17
7.40167e-17
2.77323e-16
9.9944e-16
3.46441e-15
1.15503e-14
3.70373e-14
1.14224e-13
3.38792e-13
9.66411e-13
2.65115e-12
6.99424e-12
1.77452e-11
4.33016e-11
1.01751e-10
2.32035e-10
5.14523e-10
1.10069e-09
2.26406e-09
4.4778e-09
8.51508e-09
1.55687e-08
2.73684e-08
4.62565e-08
7.5165e-08
1.17428e-07
1.76375e-07
2.54684e-07
3.53561e-07
4.71864e-07
6.05419e-07
7.46751e-07
8.85465e-07
1.00934e-06
1.10604e-06
1.16511e-06
1.17983e-06
1.14848e-06
1.07467e-06
9.6666e-07
8.35817e-07
6.94679e-07
5.54994e-07
4.26206e-07
3.14611e-07
2.23227e-07
1.52242e-07
9.9801e-08
6.28841e-08
3.80846e-08
2.21695e-08
1.24039e-08
6.67037e-09
3.44769e-09
1.71273e-09
8.17767e-10
3.7527e-10
1.65512e-10
7.01585e-11
2.85821e-11
1.1191e-11
4.21111e-12
1.52291e-12
5.29205e-13
1.75152e-13
8.34493e-14
0
0
0
0
0
0
0
0
0
0
0
0
0
0
0
0
0
0
0
0
0
0
0
0
0
0
0
0
0
0
3.14153e-20
1.49072e-19
6.80431e-19
2.9874e-18
1.26157e-17
5.12417e-17
2.0018e-16
7.52131e-16
2.71788e-15
9.44538e-15
3.15685e-14
1.01467e-13
3.13633e-13
9.32263e-13
2.66481e-12
7.32486e-12
1.93611e-11
4.921e-11
1.20284e-10
2.83018e-10
6.45705e-10
1.43132e-09
3.06008e-09
6.29023e-09
1.24317e-08
2.3622e-08
4.31538e-08
7.57937e-08
1.27983e-07
2.07765e-07
3.24254e-07
4.86507e-07
7.01742e-07
9.73074e-07
1.29715e-06
1.66228e-06
2.04779e-06
2.42509e-06
2.76077e-06
3.02125e-06
3.17828e-06
3.21399e-06
3.1242e-06
2.91926e-06
2.62204e-06
2.2638e-06
1.87873e-06
1.4987e-06
1.14917e-06
8.46969e-07
6.00019e-07
4.08574e-07
2.67412e-07
1.68226e-07
1.01719e-07
5.91159e-08
3.30215e-08
1.77287e-08
9.14825e-09
4.5371e-09
2.16269e-09
9.90791e-10
4.36252e-10
1.84611e-10
7.50823e-11
2.93478e-11
1.10247e-11
3.98022e-12
1.38083e-12
4.56895e-13
2.1829e-13
0
0
0
0
0
0
0
0
0
0
0
0
0
0
0
0
0
0
0
0
0
0
0
0
0
0
0
0
0
1.61714e-20
8.00728e-20
3.81334e-19
1.74661e-18
7.69388e-18
3.25945e-17
1.32796e-16
5.20298e-16
1.96039e-15
7.10306e-15
2.47487e-14
8.29198e-14
2.67149e-13
8.27623e-13
2.46541e-12
7.0618e-12
1.94494e-11
5.15061e-11
1.31149e-10
3.21109e-10
7.56569e-10
1.72705e-09
3.82734e-09
8.17846e-09
1.68018e-08
3.31852e-08
6.30132e-08
1.1503e-07
2.01875e-07
3.40594e-07
5.52421e-07
8.61349e-07
1.2911e-06
1.8604e-06
2.57702e-06
3.43153e-06
4.39252e-06
5.40495e-06
6.3932e-06
7.26925e-06
7.94516e-06
8.34746e-06
8.43026e-06
8.18388e-06
7.6367e-06
6.84979e-06
5.90569e-06
4.89421e-06
3.89861e-06
2.98503e-06
2.19683e-06
1.55399e-06
1.05659e-06
6.90492e-07
4.33719e-07
2.61849e-07
1.51943e-07
8.47418e-08
4.54251e-08
2.34031e-08
1.15885e-08
5.51509e-09
2.5226e-09
1.10894e-09
4.68523e-10
1.90245e-10
7.42424e-11
2.78448e-11
1.00365e-11
3.47643e-12
1.14966e-12
5.50222e-13
0
0
0
0
0
0
0
0
0
0
0
0
0
0
0
0
0
0
0
0
0
0
0
0
0
0
0
0
0
3.94609e-20
1.9613e-19
9.37427e-19
4.3086e-18
1.90429e-17
8.09316e-17
3.30739e-16
1.29965e-15
4.91063e-15
1.78406e-14
6.23212e-14
2.09321e-13
6.75978e-13
2.0989e-12
6.26595e-12
1.7985e-11
4.96319e-11
1.31684e-10
3.35909e-10
8.2384e-10
1.94376e-09
4.4398e-09
9.83751e-09
2.10124e-08
4.31469e-08
8.51729e-08
1.61632e-07
2.94866e-07
5.17115e-07
8.71792e-07
1.41286e-06
2.20109e-06
3.29633e-06
4.7454e-06
6.56691e-06
8.7356e-06
1.11703e-05
1.37301e-05
1.62225e-05
1.84244e-05
2.01139e-05
2.1107e-05
2.12902e-05
2.06422e-05
1.92374e-05
1.72328e-05
1.4838e-05
1.22802e-05
9.76884e-06
7.46938e-06
5.48943e-06
3.87766e-06
2.63274e-06
1.71806e-06
1.07761e-06
6.49636e-07
3.76412e-07
2.09624e-07
1.12201e-07
5.77201e-08
2.85386e-08
1.35615e-08
6.19372e-09
2.7187e-09
1.14692e-09
4.65011e-10
1.81197e-10
6.78569e-11
2.44224e-11
8.44706e-12
2.78953e-12
1.33355e-12
0
0
0
0
0
0
0
0
0
0
0
0
0
0
0
0
0
0
0
0
0
0
0
0
0
0
0
0
1.78333e-20
9.25344e-20
4.61666e-19
2.21462e-18
1.02144e-17
4.52959e-17
1.93123e-16
7.91652e-16
3.11998e-15
1.18218e-14
4.30651e-14
1.50824e-13
5.07832e-13
1.64386e-12
5.11571e-12
1.53051e-11
4.40207e-11
1.2172e-10
3.23558e-10
8.26841e-10
2.03133e-09
4.79951e-09
1.09701e-08
2.43051e-08
5.18971e-08
1.06523e-07
2.10182e-07
3.98656e-07
7.26854e-07
1.27391e-06
2.14621e-06
3.4757e-06
5.41065e-06
8.09636e-06
1.16456e-05
1.61013e-05
2.13987e-05
2.73362e-05
3.35668e-05
3.9619e-05
4.49484e-05
4.90163e-05
5.13785e-05
5.17648e-05
5.01299e-05
4.66624e-05
4.17487e-05
3.59024e-05
2.9676e-05
2.35769e-05
1.80038e-05
1.32141e-05
9.32193e-06
6.32069e-06
4.11919e-06
2.58016e-06
1.55334e-06
8.98809e-07
4.99862e-07
2.67184e-07
1.37261e-07
6.77732e-08
3.21618e-08
1.46688e-08
6.43005e-09
2.70895e-09
1.09686e-09
4.2684e-10
1.59639e-10
5.73814e-11
1.98215e-11
6.52365e-12
3.09416e-12
0
0
0
0
0
0
0
0
0
0
0
0
0
0
0
0
0
0
0
0
0
0
0
0
0
0
0
0
4.00281e-20
2.08526e-19
1.04433e-18
5.02802e-18
2.32717e-17
1.03545e-16
4.42895e-16
1.82111e-15
7.19834e-15
2.73519e-14
9.99079e-14
3.50806e-13
1.18409e-12
3.84199e-12
1.19833e-11
3.59289e-11
1.03552e-10
2.86892e-10
7.64052e-10
1.95601e-09
4.81356e-09
1.13897e-08
2.60523e-08
5.77211e-08
1.23217e-07
2.52835e-07
4.98689e-07
9.45465e-07
1.72299e-06
3.01814e-06
5.08177e-06
8.22444e-06
1.27942e-05
1.91307e-05
2.74956e-05
3.79843e-05
5.04376e-05
6.43744e-05
7.8973e-05
9.31214e-05
0.000105542
0.000114975
0.000120388
0.000121162
0.000117206
0.000108976
9.73886e-05
8.36534e-05
6.90644e-05
5.48049e-05
4.18001e-05
3.06427e-05
2.15907e-05
1.46217e-05
9.51735e-06
5.95417e-06
3.58024e-06
2.06913e-06
1.14934e-06
6.13603e-07
3.14854e-07
1.55278e-07
7.36023e-08
3.35312e-08
1.46819e-08
6.17864e-09
2.49906e-09
9.71483e-10
3.62966e-10
1.30338e-10
4.49805e-11
1.46945e-11
6.81809e-12
0
0
0
0
0
0
0
0
0
0
0
0
0
0
0
0
0
0
0
0
0
0
0
0
0
0
0
1.81702e-20
1.00472e-19
5.22035e-19
2.21384e-18
1.09036e-17
5.0994e-17
2.27476e-16
9.76164e-16
4.0262e-15
1.59615e-14
6.08209e-14
2.2276e-13
7.84196e-13
2.65348e-12
8.62999e-12
2.69779e-11
8.10609e-11
2.34109e-10
6.49876e-10
1.734e-09
4.44705e-09
1.09624e-08
2.5977e-08
5.94681e-08
1.31778e-07
2.81281e-07
5.77069e-07
1.13791e-06
2.15664e-06
3.9286e-06
6.87843e-06
1.15753e-05
1.87225e-05
2.91063e-05
4.34912e-05
6.24608e-05
8.62194e-05
0.000114392
0.000145874
0.000178793
0.000210629
0.000238494
0.000259557
0.000271506
0.000272973
0.000263788
0.00024501
0.000218729
0.000187682
0.000154787
0.000122699
9.34846e-05
6.84595e-05
4.8186e-05
3.25989e-05
2.11972e-05
1.32479e-05
7.95808e-06
4.59477e-06
2.54984e-06
1.36005e-06
6.97249e-07
3.4357e-07
1.62718e-07
7.4071e-08
3.24082e-08
1.36287e-08
5.50867e-09
2.1401e-09
7.99126e-10
2.86809e-10
9.89353e-11
3.18628e-11
1.40938e-11
0
0
0
0
0
0
0
0
0
0
0
0
0
0
0
0
0
0
0
0
0
0
0
0
0
0
0
0.00266122