# vtk DataFile Version 2.0
Structured output generated by Nextsim
ASCII
DATASET STRUCTURED_POINTS
DIMENSIONS 3 3 1
ORIGIN 0 0 0
SPACING 0.5 0.5 0.5
POINT_DATA 9
SCALARS interpolate DOUBLE 1
LOOKUP_TABLE default
4.17207e-07
2.01814e-05
3.99455e-05
2.1006e-07
0.000489916
0.000979621
2.91312e-09
0.00095965
0.0019193
CELL_DATA 4
SCALARS average DOUBLE 1
LOOKUP_TABLE default
4.17207e-07
3.99455e-05
2.91312e-09
0.0019193
