# vtk DataFile Version 2.0
Structured output generated by Nextsim
ASCII
DATASET STRUCTURED_POINTS
DIMENSIONS 101 101 1
ORIGIN 0 0 0
SPACING 0.01 0.01 0.01
POINT_DATA 10201
SCALARS interpolate DOUBLE 1
LOOKUP_TABLE default
0
0
0
0
0
0
0
0
0
0
0
0
0
0
0
0
0
0
0
0
0
0
0
0
0
0
0
0
0
0
0
0
0
0
0
0
0
0
0
0
0
0
0
0
0
0
0
0
0
0
0
0
0
0
0
0
0
0
0
0
0
0
0
0
0
0
0
0
0
0
0
0
0
0
0
0
0
0
0
0
0
0
0
0
0
0
0
0
0
0
0
0
0
0
0
0
0
0
0
0
0
0
0
0
0
0
0
0
0
0
0
0
0
0
0
0
0
0
0
0
0
0
0
0
0
0
0
0
0
0
0
0
0
0
0
0
0
0
0
0
0
0
0
0
0
0
0
0
0
0
0
0
0
0
0
0
0
0
0
0
0
0
0
0
0
0
0
0
0
0
0
0
0
0
0
0
0
0
0
0
0
0
0
0
0
0
0
0
0
0
0
0
0
0
0
0
0
0
0
0
0
0
0
0
0
0
0
0
0
0
0
0
0
0
0
0
0
0
0
0
0
0
0
0
0
0
0
0
0
0
0
0
0
0
0
0
0
0
0
0
0
0
0
0
0
0
0
0
0
0
0
0
0
0
0
0
0
0
0
0
0
0
0
0
0
0
0
0
0
0
0
0
0
0
0
0
0
0
0
0
0
0
0
0
0
0
0
0
0
0
0
0
0
0
0
0
0
0
0
0
0
0
0
0
0
0
0
0
0
0
0
0
0
0
0
0
0
0
0
0
0
0
0
0
0
0
0
0
0
0
0
0
0
0
0
0
0
0
0
0
0
0
0
0
0
0
0
0
0
0
0
0
0
0
0
0
0
0
0
0
0
0
0
0
0
0
2.14678e-20
5.54554e-20
1.193e-19
1.97122e-19
2.17986e-19
1.29588e-19
5.32204e-20
3.09354e-20
1.17982e-20
0
0
0
0
0
0
0
0
0
0
0
0
0
0
0
0
0
0
0
0
0
0
0
0
0
0
0
0
0
0
0
0
0
0
0
0
0
0
0
0
0
0
0
0
0
0
0
0
0
0
0
0
0
0
0
0
0
0
0
0
0
0
0
0
0
0
0
0
0
0
0
0
0
0
0
0
0
0
0
0
0
0
0
0
0
0
0
0
0
1.68174e-20
6.88352e-20
2.31977e-19
6.60421e-19
1.63029e-18
3.3773e-18
5.41354e-18
5.84568e-18
3.40804e-18
1.35715e-18
7.7603e-19
2.88835e-19
1.3563e-19
1.1277e-20
0
0
0
0
0
0
0
0
0
0
0
0
0
0
0
0
0
0
0
0
0
0
0
0
0
0
0
0
0
0
0
0
0
0
0
0
0
0
0
0
0
0
0
0
0
0
0
0
0
0
0
0
0
0
0
0
0
0
0
0
0
0
0
0
0
0
0
0
0
0
0
0
0
0
0
0
0
0
0
0
0
0
0
0
0
1.99298e-20
1.16295e-19
5.60928e-19
2.20752e-18
7.10007e-18
1.92023e-17
4.52189e-17
9.00771e-17
1.39933e-16
1.47486e-16
8.4377e-17
3.26626e-17
1.83824e-17
6.69136e-18
3.113e-18
2.61114e-19
0
0
0
0
0
0
0
0
0
0
0
0
0
0
0
0
0
0
0
0
0
0
0
0
0
0
0
0
0
0
0
0
0
0
0
0
0
0
0
0
0
0
0
0
0
0
0
0
0
0
0
0
0
0
0
0
0
0
0
0
0
0
0
0
0
0
0
0
0
0
0
0
0
0
0
0
0
0
0
0
0
0
0
1.24874e-20
9.88522e-20
6.67706e-19
3.7827e-18
1.7647e-17
6.67787e-17
2.04917e-16
5.25778e-16
1.17904e-15
2.25524e-15
3.39207e-15
3.48808e-15
1.95958e-15
7.39518e-16
4.09878e-16
1.46271e-16
6.74238e-17
5.71956e-18
2.68472e-20
0
0
0
0
0
0
0
0
0
0
0
0
0
0
0
0
0
0
0
0
0
0
0
0
0
0
0
0
0
0
0
0
0
0
0
0
0
0
0
0
0
0
0
0
0
0
0
0
0
0
0
0
0
0
0
0
0
0
0
0
0
0
0
0
0
0
0
0
0
0
0
0
0
0
0
0
0
0
0
0
0
4.65937e-20
4.15181e-19
3.20056e-18
2.10222e-17
1.15565e-16
5.21347e-16
1.89708e-15
5.55291e-15
1.35007e-14
2.87803e-14
5.27841e-14
7.67903e-14
7.70089e-14
4.25166e-14
1.56942e-14
8.57211e-15
3.00738e-15
1.37367e-15
1.18178e-16
5.95368e-19
0
0
0
0
0
0
0
0
0
0
0
0
0
0
0
0
0
0
0
0
0
0
0
0
0
0
0
0
0
0
0
0
0
0
0
0
0
0
0
0
0
0
0
0
0
0
0
0
0
0
0
0
0
0
0
0
0
0
0
0
0
0
0
0
0
0
0
0
0
0
0
0
0
0
0
0
0
0
0
1.34531e-20
1.50621e-19
1.4923e-18
1.29442e-17
9.70422e-17
6.19138e-16
3.3001e-15
1.43913e-14
5.0355e-14
1.40583e-13
3.23533e-13
6.54547e-13
1.1494e-12
1.61573e-12
1.5796e-12
8.57824e-13
3.10905e-13
1.67476e-13
5.79459e-14
2.62323e-14
2.29592e-15
1.24903e-17
6.1242e-20
0
0
0
0
0
0
0
0
0
0
0
0
0
0
0
0
0
0
0
0
0
0
0
0
0
0
0
0
0
0
0
0
0
0
0
0
0
0
0
0
0
0
0
0
0
0
0
0
0
0
0
0
0
0
0
0
0
0
0
0
0
0
0
0
0
0
0
0
0
0
0
0
0
0
0
0
0
3.48638e-20
4.25825e-19
4.64005e-18
4.47035e-17
3.76754e-16
2.74217e-15
1.69692e-14
8.76033e-14
3.69065e-13
1.24158e-12
3.30605e-12
7.19542e-12
1.37928e-11
2.31572e-11
3.14228e-11
2.99374e-11
1.60093e-11
5.7221e-12
3.0427e-12
1.04201e-12
4.67651e-13
4.17872e-14
2.47181e-16
1.30237e-18
0
0
0
0
0
0
0
0
0
0
0
0
0
0
0
0
0
0
0
0
0
0
0
0
0
0
0
0
0
0
0
0
0
0
0
0
0
0
0
0
0
0
0
0
0
0
0
0
0
0
0
0
0
0
0
0
0
0
0
0
0
0
0
0
0
0
0
0
0
0
0
0
0
0
0
0
8.03631e-20
1.06237e-18
1.26118e-17
1.3343e-16
1.24699e-15
1.01869e-14
7.18238e-14
4.30269e-13
2.14818e-12
8.735e-12
2.82448e-11
7.17332e-11
1.47537e-10
2.67541e-10
4.28872e-10
5.61207e-10
5.20906e-10
2.74662e-10
9.73087e-11
5.11348e-11
1.74054e-11
7.74706e-12
7.09589e-13
4.59954e-15
2.61996e-17
0
0
0
0
0
0
0
0
0
0
0
0
0
0
0
0
0
0
0
0
0
0
0
0
0
0
0
0
0
0
0
0
0
0
0
0
0
0
0
0
0
0
0
0
0
0
0
0
0
0
0
0
0
0
0
0
0
0
0
0
0
0
0
0
0
0
0
0
0
0
0
0
0
0
1.08949e-20
1.66233e-19
2.35929e-18
3.02693e-17
3.48264e-16
3.56667e-15
3.22344e-14
2.5447e-13
1.73302e-12
1.00249e-11
4.83069e-11
1.89333e-10
5.88118e-10
1.4246e-09
2.76725e-09
4.74012e-09
7.24512e-09
9.1341e-09
8.25825e-09
4.30068e-09
1.51931e-09
7.9008e-10
2.68589e-10
1.18625e-10
1.11892e-11
8.01858e-14
4.97137e-16
0
0
0
0
0
0
0
0
0
0
0
0
0
0
0
0
0
0
0
0
0
0
0
0
0
0
0
0
0
0
0
0
0
0
0
0
0
0
0
0
0
0
0
0
0
0
0
0
0
0
0
0
0
0
0
0
0
0
0
0
0
0
0
0
0
0
0
0
0
0
0
0
0
2.04077e-20
3.17904e-19
4.7102e-18
6.47836e-17
8.04029e-16
8.93377e-15
8.82293e-14
7.68078e-13
5.8365e-12
3.82505e-11
2.12947e-10
9.87662e-10
3.72408e-09
1.11024e-08
2.5648e-08
4.70315e-08
7.59944e-08
1.10612e-07
1.34235e-07
1.18211e-07
6.09334e-08
2.16156e-08
1.11433e-08
3.8047e-09
1.66864e-09
1.62953e-10
1.3043e-12
8.86905e-15
0
0
0
0
0
0
0
0
0
0
0
0
0
0
0
0
0
0
0
0
0
0
0
0
0
0
0
0
0
0
0
0
0
0
0
0
0
0
0
0
0
0
0
0
0
0
0
0
0
0
0
0
0
0
0
0
0
0
0
0
0
0
0
0
0
0
0
0
0
0
0
0
3.62803e-20
5.76632e-19
8.71601e-18
1.25003e-16
1.6602e-15
1.98528e-14
2.12092e-13
2.01026e-12
1.67725e-11
1.22057e-10
7.66007e-10
4.08596e-09
1.81733e-08
6.57448e-08
1.87835e-07
4.13721e-07
7.15954e-07
1.08989e-06
1.50888e-06
1.76125e-06
1.51102e-06
7.73147e-07
2.77724e-07
1.42252e-07
4.91046e-08
2.14068e-08
2.17793e-09
1.9702e-11
1.48222e-13
0
0
0
0
0
0
0
0
0
0
0
0
0
0
0
0
0
0
0
0
0
0
0
0
0
0
0
0
0
0
0
0
0
0
0
0
0
0
0
0
0
0
0
0
0
0
0
0
0
0
0
0
0
0
0
0
0
0
0
0
0
0
0
0
0
0
0
0
0
0
0
6.14609e-20
9.96003e-19
1.5347e-17
2.24327e-16
3.10247e-15
3.96208e-14
4.54318e-13
4.64168e-12
4.19744e-11
3.33517e-10
2.30906e-09
1.37871e-08
7.00431e-08
2.9724e-07
1.02775e-06
2.80756e-06
5.89251e-06
9.62121e-06
1.37834e-05
1.8131e-05
2.03436e-05
1.70128e-05
8.67485e-06
3.18736e-06
1.62693e-06
5.72258e-07
2.48323e-07
2.65161e-08
2.74881e-10
2.3109e-12
0
0
0
0
0
0
0
0
0
0
0
0
0
0
0
0
0
0
0
0
0
0
0
0
0
0
0
0
0
0
0
0
0
0
0
0
0
0
0
0
0
0
0
0
0
0
0
0
0
0
0
0
0
0
0
0
0
0
0
0
0
0
0
0
0
0
0
0
0
0
9.95274e-20
1.64396e-18
2.58104e-17
3.84267e-16
5.411e-15
7.18561e-14
8.78109e-13
9.60217e-12
9.32335e-11
7.98684e-10
5.99602e-09
3.91604e-08
2.2055e-07
1.05853e-06
4.25594e-06
1.39874e-05
3.64059e-05
7.2727e-05
0.000112026
0.000150901
0.000188446
0.000203181
0.000165818
8.47229e-05
3.22367e-05
1.6464e-05
5.95657e-06
2.57785e-06
2.91479e-07
3.51997e-09
3.34521e-11
0
0
0
0
0
0
0
0
0
0
0
0
0
0
0
0
0
0
0
0
0
0
0
0
0
0
0
0
0
0
0
0
0
0
0
0
0
0
0
0
0
0
0
0
0
0
0
0
0
0
0
0
0
0
0
0
0
0
0
0
0
0
0
0
0
0
0
0
0
1.53897e-19
2.5921e-18
4.14774e-17
6.29038e-16
9.01782e-15
1.21844e-13
1.54648e-12
1.79893e-11
1.86478e-10
1.70889e-09
1.3756e-08
9.6656e-08
5.89159e-07
3.09429e-06
1.38741e-05
5.23263e-05
0.000162155
0.00039991
0.000758808
0.00110255
0.00139564
0.00165378
0.00171364
0.00136775
0.000705899
0.000282454
0.000145153
5.46364e-05
2.36471e-05
2.86204e-06
4.10648e-08
4.47157e-10
0
0
0
0
0
0
0
0
0
0
0
0
0
0
0
0
0
0
0
0
0
0
0
0
0
0
0
0
0
0
0
0
0
0
0
0
0
0
0
0
0
0
0
0
0
0
0
0
0
0
0
0
0
0
0
0
0
0
0
0
0
0
0
0
0
0
0
1.24516e-20
2.25068e-19
3.87115e-18
6.32191e-17
9.77869e-16
1.42877e-14
1.96599e-13
2.53898e-12
3.0657e-11
3.37654e-10
3.29836e-09
2.83304e-08
2.12479e-07
1.38263e-06
7.76431e-06
3.74648e-05
0.000154513
0.000538821
0.00155549
0.00360268
0.00646802
0.00886309
0.0105427
0.011855
0.0118173
0.00926123
0.00488737
0.00209698
0.00109319
0.000434171
0.000188681
2.47743e-05
4.32613e-07
5.48421e-09
0
0
0
0
0
0
0
0
0
0
0
0
0
0
0
0
0
0
0
0
0
0
0
0
0
0
0
0
0
0
0
0
0
0
0
0
0
0
0
0
0
0
0
0
0
0
0
0
0
0
0
0
0
0
0
0
0
0
0
0
0
0
0
0
0
0
1.6455e-20
3.04632e-19
5.36366e-18
8.9613e-17
1.41716e-15
2.1154e-14
2.97126e-13
3.91323e-12
4.81341e-11
5.50455e-10
5.71159e-09
5.22973e-08
4.18432e-07
2.90112e-06
1.72972e-05
8.81916e-05
0.000383663
0.00142428
0.00449512
0.011862
0.0254149
0.0428564
0.0553525
0.0619342
0.0661725
0.0636301
0.0493344
0.0271459
0.0128064
0.00685555
0.00292391
0.00128354
0.00018597
4.0719e-06
6.12505e-08
0
0
0
0
0
0
0
0
0
0
0
0
0
0
0
0
0
0
0
0
0
0
0
0
0
0
0
0
0
0
0
0
0
0
0
0
0
0
0
0
0
0
0
0
0
0
0
0
0
0
0
0
0
0
0
0
0
0
0
0
0
0
0
0
0
1.9354e-20
3.68038e-19
6.65325e-18
1.14074e-16
1.85027e-15
2.83097e-14
4.07276e-13
5.48939e-12
6.90324e-11
8.0618e-10
8.6956e-09
8.46167e-08
7.23079e-07
5.364e-06
3.41727e-05
0.000184985
0.000843882
0.00323667
0.0104991
0.0290296
0.0678992
0.130943
0.204253
0.248281
0.262214
0.267264
0.249606
0.194411
0.115265
0.0617567
0.0346026
0.0162052
0.00725319
0.00118557
3.37972e-05
6.17345e-07
0
0
0
0
0
0
0
0
0
0
0
0
0
0
0
0
0
0
0
0
0
0
0
0
0
0
0
0
0
0
0
0
0
0
0
0
0
0
0
0
0
0
0
0
0
0
0
0
0
0
0
0
0
0
0
0
0
0
0
0
0
0
0
0
1.9192e-20
3.75991e-19
7.00045e-18
1.23578e-16
2.06293e-15
3.24703e-14
4.80308e-13
6.65229e-12
8.59029e-11
1.02926e-09
1.13784e-08
1.153e-07
1.04788e-06
8.32866e-06
5.71118e-05
0.000333117
0.00162722
0.00656119
0.0216693
0.0590795
0.13618
0.268096
0.441271
0.614355
0.699834
0.705039
0.693741
0.640607
0.518506
0.350559
0.221911
0.134268
0.0709979
0.0328999
0.00624786
0.000243373
5.55404e-06
2.38701e-20
2.1343e-20
1.83208e-20
1.51153e-20
1.19856e-20
0
0
0
0
0
0
0
0
0
0
0
0
0
0
0
0
0
0
0
0
0
0
0
0
0
0
0
0
0
0
0
0
0
0
0
0
0
0
0
0
0
0
0
0
0
0
0
0
0
0
0
0
0
0
0
0
0
0
1.47842e-20
2.99244e-19
5.75548e-18
1.04939e-16
1.80899e-15
2.93971e-14
4.48841e-13
6.41464e-12
8.54443e-11
1.05557e-09
1.20257e-08
1.25501e-07
1.19027e-06
1.0065e-05
7.42077e-05
0.000469541
0.0025036
0.0110056
0.0389277
0.10848
0.237736
0.425753
0.651652
0.832506
0.94718
0.999021
0.99534
0.981508
0.940593
0.850217
0.708988
0.548216
0.376964
0.232419
0.114486
0.0262839
0.00148931
4.40013e-05
1.3683e-19
1.21787e-19
1.03957e-19
8.52906e-20
6.72563e-20
5.0972e-20
3.71266e-20
2.59883e-20
1.74823e-20
1.13015e-20
0
0
0
0
0
0
0
0
0
0
0
0
0
0
0
0
0
0
0
0
0
0
0
0
0
0
0
0
0
0
0
0
0
0
0
0
0
0
0
0
0
0
0
0
0
0
0
0
0
0
0
0
0
1.61244e-19
3.21333e-18
6.07075e-17
1.08442e-15
1.82617e-14
2.88957e-13
4.28005e-12
5.90928e-11
7.56769e-10
8.93859e-09
9.67304e-08
9.51521e-07
8.42775e-06
6.61661e-05
0.000451916
0.00263656
0.0128451
0.0507699
0.157025
0.365006
0.621749
0.814598
0.940999
1
0.999997
0.99998
0.999864
0.999215
0.996136
0.984135
0.9472
0.861513
0.716946
0.527185
0.289193
0.0845468
0.00754139
0.000301758
7.6051e-19
6.72884e-19
5.71252e-19
4.6615e-19
3.65609e-19
2.75606e-19
1.99676e-19
1.39032e-19
9.3035e-20
5.98279e-20
3.69724e-20
2.19561e-20
1.25292e-20
0
0
0
0
0
0
0
0
0
0
0
0
0
0
0
0
0
0
0
0
0
0
0
0
0
0
0
0
0
0
0
0
0
0
0
0
0
0
0
0
0
0
0
0
0
0
0
0
0
4.37057e-20
9.06407e-19
1.78286e-17
3.31743e-16
5.82279e-15
9.60967e-14
1.4858e-12
2.14337e-11
2.8713e-10
3.55259e-09
4.03415e-08
4.17315e-07
3.89781e-06
3.25195e-05
0.000239125
0.00152388
0.00823952
0.0367758
0.130705
0.352984
0.686005
0.933876
1
1
1
1
1
0.999998
0.999981
0.999866
0.999162
0.995509
0.979708
0.924838
0.779611
0.509199
0.199727
0.0305324
0.00175206
4.09201e-18
3.59908e-18
3.03939e-18
2.46718e-18
1.92496e-18
1.44355e-18
1.04045e-18
7.20731e-19
4.79818e-19
3.06985e-19
1.8875e-19
1.11524e-19
6.33225e-20
3.45494e-20
1.81136e-20
0
0
0
0
0
0
0
0
0
0
0
0
0
0
0
0
0
0
0
0
0
0
0
0
0
0
0
0
0
0
0
0
0
0
0
0
0
0
0
0
0
0
0
0
0
0
0
7.23551e-20
1.51366e-18
3.00327e-17
5.63671e-16
9.97822e-15
1.66054e-13
2.58822e-12
3.76244e-11
5.07625e-10
6.32088e-09
7.21618e-08
7.49437e-07
7.01415e-06
5.84828e-05
0.000427042
0.00267345
0.0140131
0.0596471
0.198022
0.486679
0.83659
1
1
1
1
1
1
1
0.999996
0.999971
0.999785
0.998633
0.992611
0.966885
0.88119
0.674074
0.35237
0.0947509
0.00836159
2.12966e-17
1.86324e-17
1.56546e-17
1.26428e-17
9.81434e-18
7.32282e-18
5.25149e-18
3.6196e-18
2.39772e-18
1.52646e-18
9.33922e-19
5.49111e-19
3.10259e-19
1.68459e-19
8.78935e-20
4.4066e-20
2.12288e-20
0
0
0
0
0
0
0
0
0
0
0
0
0
0
0
0
0
0
0
0
0
0
0
0
0
0
0
0
0
0
0
0
0
0
0
0
0
0
0
0
0
0
0
0
0
2.13562e-19
4.5303e-18
9.09251e-17
1.72164e-15
3.0655e-14
5.11424e-13
7.96139e-12
1.151e-10
1.53702e-09
1.88386e-08
2.10352e-07
2.12084e-06
1.91011e-05
0.000151651
0.00104354
0.00608878
0.0292838
0.111812
0.322417
0.660602
0.925893
1
1
1
1
1
1
1
0.999999
0.999989
0.999914
0.999426
0.996702
0.984053
0.936953
0.803538
0.538497
0.216554
0.0314954
1.07356e-16
9.33442e-17
7.80384e-17
6.27143e-17
4.84449e-17
3.59698e-17
2.56698e-17
1.76072e-17
1.16072e-17
7.35395e-18
4.47776e-18
2.62021e-18
1.47345e-18
7.96246e-19
4.13488e-19
2.06335e-19
9.89389e-20
4.55865e-20
2.01824e-20
0
0
0
0
0
0
0
0
0
0
0
0
0
0
0
0
0
0
0
0
0
0
0
0
0
0
0
0
0
0
0
0
0
0
0
0
0
0
0
0
0
0
1.48628e-20
3.36227e-19
7.21453e-18
1.4645e-16
2.80418e-15
5.04818e-14
8.51263e-13
1.33893e-11
1.95483e-10
2.63438e-09
3.25541e-08
3.66016e-07
3.70922e-06
3.34937e-05
0.000265651
0.00181141
0.0103336
0.0477754
0.171601
0.45254
0.819956
1
1
1
1
1
1
1
1
1
0.999998
0.999983
0.999863
0.999057
0.994499
0.973434
0.897557
0.699496
0.368527
0.0884738
5.22735e-16
4.52446e-16
3.76448e-16
3.01083e-16
2.31472e-16
1.71051e-16
1.21494e-16
8.2942e-17
5.44215e-17
3.43189e-17
2.07993e-17
1.21145e-17
6.78106e-18
3.64763e-18
1.88554e-18
9.36617e-19
4.47077e-19
2.05062e-19
9.03786e-20
3.82746e-20
1.55739e-20
0
0
0
0
0
0
0
0
0
0
0
0
0
0
0
0
0
0
0
0
0
0
0
0
0
0
0
0
0
0
0
0
0
0
0
0
0
0
0
0
4.333e-20
9.99835e-19
2.18281e-17
4.49568e-16
8.70673e-15
1.57982e-13
2.67453e-12
4.20451e-11
6.10425e-10
8.13251e-09
9.8679e-08
1.08076e-06
1.05684e-05
9.10397e-05
0.000679267
0.00429775
0.0224241
0.0928367
0.289156
0.631989
0.916945
1
1
1
1
1
1
1
1
1
0.999999
0.999993
0.999946
0.999606
0.997538
0.987053
0.944401
0.812586
0.5294
0.172046
2.46253e-15
2.12141e-15
1.75691e-15
1.39869e-15
1.07036e-15
7.87331e-16
5.56667e-16
3.78293e-16
2.47085e-16
1.55108e-16
9.35805e-17
5.42607e-17
3.0236e-17
1.61917e-17
8.33262e-18
4.12078e-18
1.9583e-18
8.94273e-19
3.92414e-19
1.6546e-19
6.70338e-20
2.60807e-20
0
0
0
0
0
0
0
0
0
0
0
0
0
0
0
0
0
0
0
0
0
0
0
0
0
0
0
0
0
0
0
0
0
0
0
0
0
0
0
5.73525e-20
1.33308e-18
2.93132e-17
6.08013e-16
1.18574e-14
2.1662e-13
3.69166e-12
5.84084e-11
8.53189e-10
1.14317e-08
1.39423e-07
1.53358e-06
1.50428e-05
0.000129754
0.000966761
0.00608724
0.0314552
0.12783
0.384134
0.782522
1
1
1
1
1
1
1
1
1
1
1
0.999999
0.999986
0.99988
0.999098
0.994237
0.969786
0.875489
0.621037
0.220303
1.12177e-14
9.62022e-15
7.93159e-15
6.28621e-15
4.78913e-15
3.50712e-15
2.46865e-15
1.6702e-15
1.08609e-15
6.788e-16
4.07741e-16
2.35387e-16
1.30595e-16
6.96319e-17
3.56791e-17
1.75686e-17
8.3132e-18
3.78006e-18
1.65165e-18
6.9346e-19
2.7976e-19
1.08396e-19
4.01179e-20
1.3501e-20
0
0
0
0
0
0
0
0
0
0
0
0
0
0
0
0
0
0
0
0
0
0
0
0
0
0
0
0
0
0
0
0
0
0
0
0
0
3.01816e-20
7.16848e-19
1.61274e-17
3.42685e-16
6.85534e-15
1.28644e-13
2.25518e-12
3.67576e-11
5.53984e-10
7.67083e-09
9.68449e-08
1.10467e-06
1.12585e-05
0.000101111
0.00078623
0.00517227
0.0279038
0.118187
0.368855
0.774087
0.999991
1
1
1
1
1
1
1
1
1
1
0.999999
0.99999
0.999905
0.999251
0.995006
0.972739
0.883395
0.633353
0.227028
4.94027e-14
4.21859e-14
3.46307e-14
2.73282e-14
2.07302e-14
1.51156e-14
1.05941e-14
7.13689e-15
4.62113e-15
2.87587e-15
1.72013e-15
9.88816e-16
5.46287e-16
2.90046e-16
1.47994e-16
7.25681e-17
3.41949e-17
1.54839e-17
6.73749e-18
2.81711e-18
1.13183e-18
4.36773e-19
1.61094e-19
5.41801e-20
2.41744e-20
0
0
0
0
0
0
0
0
0
0
0
0
0
0
0
0
0
0
0
0
0
0
0
0
0
0
0
0
0
0
0
0
0
0
0
0
1.30129e-20
3.21369e-19
7.5296e-18
1.66809e-16
3.48255e-15
6.82632e-14
1.25099e-12
2.13305e-11
3.36508e-10
4.87979e-09
6.4545e-08
7.71549e-07
8.24151e-06
7.75735e-05
0.000632045
0.00435454
0.0245801
0.108741
0.353213
0.765086
0.999826
0.999999
1
1
1
1
1
1
1
1
1
0.999999
0.999991
0.999916
0.999314
0.995285
0.97362
0.885132
0.635011
0.227603
2.10326e-13
1.78853e-13
1.46209e-13
1.14897e-13
8.67935e-14
6.30229e-14
4.39876e-14
2.95101e-14
1.90287e-14
1.17932e-14
7.02477e-15
4.02158e-15
2.21267e-15
1.16999e-15
5.94549e-16
2.90348e-16
1.3626e-16
6.14512e-17
2.66314e-17
1.10905e-17
4.43802e-18
1.70591e-18
6.27062e-19
2.10783e-19
9.44246e-20
0
0
0
0
0
0
0
0
0
0
0
0
0
0
0
0
0
0
0
0
0
0
0
0
0
0
0
0
0
0
0
0
0
0
0
0
0
1.3523e-19
3.31917e-18
7.71205e-17
1.68948e-15
3.47619e-14
6.68892e-13
1.19781e-11
1.98492e-10
3.02387e-09
4.20213e-08
5.27732e-07
5.92191e-06
5.85433e-05
0.000500774
0.00361971
0.0214144
0.0991159
0.335675
0.752179
0.99736
0.999982
1
1
1
1
1
1
1
1
1
0.999999
0.999988
0.999892
0.99913
0.994128
0.968072
0.86697
0.601563
0.207765
8.65462e-13
7.32992e-13
5.96791e-13
4.67094e-13
3.51425e-13
2.54152e-13
1.76676e-13
1.18052e-13
7.58171e-14
4.68005e-14
2.7766e-14
1.58323e-14
8.67629e-15
4.56956e-15
2.31289e-15
1.12504e-15
5.25904e-16
2.36243e-16
1.01981e-16
4.23037e-17
1.68626e-17
6.45696e-18
2.36562e-18
7.94812e-19
3.57522e-19
0
0
0
0
0
0
0
0
0
0
0
0
0
0
0
0
0
0
0
0
0
0
0
0
0
0
0
0
0
0
0
0
0
0
0
0
0
5.43193e-20
1.38893e-18
3.3877e-17
7.79943e-16
1.68688e-14
3.41218e-13
6.42313e-12
1.11877e-10
1.79108e-09
2.6148e-08
3.44824e-07
4.06037e-06
4.20803e-05
0.000376815
0.00284764
0.0176011
0.0850666
0.300726
0.703387
0.972334
0.999695
0.999998
0.999999
1
1
1
1
1
1
0.999999
0.999996
0.999971
0.999771
0.998322
0.989496
0.947421
0.803879
0.493194
0.145765
3.44143e-12
2.90336e-12
2.35469e-12
1.8358e-12
1.37582e-12
9.91137e-13
6.86323e-13
4.5681e-13
2.92243e-13
1.79698e-13
1.062e-13
6.03218e-14
3.29297e-14
1.72765e-14
8.71095e-15
4.22097e-15
1.96556e-15
8.79589e-16
3.78255e-16
1.56313e-16
6.2072e-17
2.36799e-17
8.64751e-18
2.90426e-18
1.31196e-18
0
0
0
0
0
0
0
0
0
0
0
0
0
0
0
0
0
0
0
0
0
0
0
0
0
0
0
0
0
0
0
0
0
0
0
0
0
1.89212e-20
4.48434e-19
1.11106e-17
2.62959e-16
5.85125e-15
1.21698e-13
2.35397e-12
4.21104e-11
6.92262e-10
1.038e-08
1.40711e-07
1.70622e-06
1.82666e-05
0.000169871
0.00134213
0.00874816
0.0452514
0.175963
0.477436
0.835264
0.996063
0.999959
0.999988
0.999993
0.999998
0.999999
0.999999
0.999999
0.999998
0.999995
0.999978
0.999884
0.999346
0.996075
0.978471
0.903067
0.682372
0.311828
0.0506825
1.32219e-11
1.1113e-11
8.97912e-12
6.97421e-12
5.20717e-12
3.73716e-12
2.57814e-12
1.70955e-12
1.08958e-12
6.67467e-13
3.92991e-13
2.22386e-13
1.20948e-13
6.32183e-14
3.17566e-14
1.53308e-14
7.11255e-15
3.17109e-15
1.35865e-15
5.5939e-16
2.21319e-16
8.41254e-17
3.06241e-17
1.02816e-17
4.66499e-18
0
0
0
0
0
0
0
0
0
0
0
0
0
0
0
0
0
0
0
0
0
0
0
0
0
0
0
0
0
0
0
0
0
0
0
0
0
1.13072e-20
8.24445e-20
1.31652e-18
2.76674e-17
5.78639e-16
1.13978e-14
2.09438e-13
3.58357e-12
5.71356e-11
8.50986e-10
1.18808e-08
1.55764e-07
1.91021e-06
2.16136e-05
0.000216272
0.00182857
0.0126226
0.0678972
0.265215
0.673463
0.964633
0.999385
0.999816
0.999893
0.999968
0.999981
0.999992
0.999987
0.99998
0.999954
0.99984
0.999372
0.997591
0.989647
0.955744
0.830337
0.527394
0.161247
5.63323e-11
4.90735e-11
4.10976e-11
3.30866e-11
2.56061e-11
1.90492e-11
1.36221e-11
9.36341e-12
6.18636e-12
3.9286e-12
2.39791e-12
1.40673e-12
7.93167e-13
4.29816e-13
2.2385e-13
1.12042e-13
5.38944e-14
2.49138e-14
1.10678e-14
4.72501e-15
1.93845e-15
7.64197e-16
2.89456e-16
1.05045e-16
3.52576e-17
1.60696e-17
0
0
0
0
0
0
0
0
0
0
0
0
0
0
0
0
0
0
0
0
0
0
0
0
0
0
0
0
0
0
0
0
0
0
0
0
0
3.52034e-20
1.25874e-19
5.19763e-19
4.06991e-18
6.80747e-17
1.43616e-15
3.04051e-14
6.17886e-13
1.1888e-11
2.14068e-10
3.56277e-09
5.40639e-08
7.37195e-07
8.89087e-06
9.30232e-05
0.000824778
0.00601779
0.0347026
0.149316
0.441517
0.815719
0.992925
0.997769
0.998731
0.999601
0.999766
0.999902
0.999861
0.999795
0.999614
0.998889
0.996346
0.989434
0.96763
0.903196
0.70939
0.338386
0.0568011
2.02647e-10
1.75926e-10
1.46823e-10
1.17793e-10
9.08446e-11
6.73471e-11
4.79921e-11
3.28731e-11
2.16432e-11
1.36963e-11
8.33063e-12
4.87007e-12
2.73632e-12
1.47762e-12
7.66863e-13
3.82492e-13
1.83345e-13
8.44597e-14
3.73902e-14
1.59069e-14
6.50322e-15
2.5549e-15
9.64412e-16
3.48933e-16
1.17092e-16
5.36166e-17
0
0
0
0
0
0
0
0
0
0
0
0
0
0
0
0
0
0
0
0
0
0
0
0
0
0
0
0
0
0
0
0
0
0
0
0
3.4956e-20
1.26153e-19
4.38962e-19
1.47771e-18
4.93652e-18
1.91802e-17
1.41426e-16
2.15375e-15
4.02557e-14
7.4206e-13
1.30032e-11
2.16499e-10
3.44586e-09
5.25897e-08
7.63494e-07
1.00608e-05
0.000114665
0.00110111
0.00861565
0.0523281
0.228878
0.637245
0.941842
0.979138
0.98826
0.995997
0.997678
0.999004
0.998692
0.998242
0.997172
0.993247
0.980844
0.955006
0.894259
0.780954
0.534257
0.178342
7.82092e-10
7.03924e-10
6.0908e-10
5.06632e-10
4.05106e-10
3.11382e-10
2.30068e-10
1.63397e-10
1.11545e-10
7.31926e-11
4.61618e-11
2.79826e-11
1.63033e-11
9.12927e-12
4.91318e-12
2.54125e-12
1.26323e-12
6.03475e-13
2.77059e-13
1.2224e-13
5.18295e-14
2.11181e-14
8.26877e-15
3.11088e-15
1.12222e-15
3.76529e-16
1.73239e-16
0
0
0
0
0
0
0
0
0
0
0
0
0
0
0
0
0
0
0
0
0
0
0
0
0
0
0
0
0
0
0
0
0
0
0
3.20018e-20
1.20389e-19
4.364e-19
1.52416e-18
5.12885e-18
1.66358e-17
5.22353e-17
1.6453e-16
6.61163e-16
6.30321e-15
1.20643e-13
2.60354e-12
5.38646e-11
1.03207e-09
1.80027e-08
2.81625e-07
3.88374e-06
4.63016e-05
0.000466354
0.00384732
0.0248867
0.118357
0.375501
0.702762
0.862362
0.921494
0.968955
0.981977
0.991768
0.989929
0.987549
0.982622
0.966002
0.91764
0.839323
0.696298
0.521298
0.286801
0.0636587
2.63124e-09
2.36076e-09
2.03619e-09
1.6883e-09
1.34565e-09
1.031e-09
7.59308e-10
5.37528e-10
3.65762e-10
2.39222e-10
1.50384e-10
9.08635e-11
5.27665e-11
2.94509e-11
1.57981e-11
8.14457e-12
4.03535e-12
1.92149e-12
8.79284e-13
3.86679e-13
1.63416e-13
6.63674e-14
2.59015e-14
9.71319e-15
3.49384e-15
1.17215e-15
5.41948e-16
0
0
0
0
0
0
0
0
0
0
0
0
0
0
0
0
0
0
0
0
0
0
0
0
0
0
0
0
0
0
0
0
0
0
2.68638e-20
1.05385e-19
3.98324e-19
1.45044e-18
5.08787e-18
1.71914e-17
5.59491e-17
1.75382e-16
5.29785e-16
1.54928e-15
4.54558e-15
1.66345e-14
1.28537e-13
1.87323e-12
3.14086e-11
5.34921e-10
9.34217e-09
1.5633e-07
2.30449e-06
2.92671e-05
0.00031246
0.00271095
0.0181994
0.0876752
0.268737
0.454579
0.664056
0.828717
0.897816
0.947207
0.939691
0.930868
0.914852
0.865134
0.730504
0.566885
0.354225
0.173277
0.0686845
9.18301e-09
8.54442e-09
7.6429e-09
6.57204e-09
5.4325e-09
4.31663e-09
3.29707e-09
2.42069e-09
1.70832e-09
1.1588e-09
7.55531e-10
4.73466e-10
2.85174e-10
1.65086e-10
9.18505e-11
4.91151e-11
2.52409e-11
1.24665e-11
5.91733e-12
2.69925e-12
1.18329e-12
4.98494e-13
2.01812e-13
7.85134e-14
2.93508e-14
1.05277e-14
3.53178e-15
1.64114e-15
0
0
0
0
0
0
0
0
0
0
0
0
0
0
0
0
0
0
0
0
0
0
0
0
0
0
0
0
0
0
0
0
0
2.0666e-20
8.45678e-20
3.33391e-19
1.26609e-18
4.63136e-18
1.63173e-17
5.53674e-17
1.80923e-16
5.69297e-16
1.7249e-15
5.03221e-15
1.41392e-14
3.83279e-14
1.01223e-13
2.71815e-13
8.2873e-13
2.9599e-12
1.4007e-11
2.29971e-10
4.57625e-09
8.31948e-08
1.33065e-06
1.83332e-05
0.000212188
0.00199331
0.0144549
0.0748356
0.243157
0.417925
0.619971
0.757395
0.740048
0.72132
0.691097
0.604314
0.3831
0.191218
0.0769772
2.97902e-08
2.99056e-08
2.88616e-08
2.67774e-08
2.38827e-08
2.04766e-08
1.68765e-08
1.33704e-08
1.01821e-08
7.4534e-09
5.24426e-09
3.54666e-09
2.30543e-09
1.44038e-09
8.64931e-10
4.99185e-10
2.76892e-10
1.47612e-10
7.56283e-11
3.72389e-11
1.76218e-11
8.01379e-12
3.50232e-12
1.47094e-12
5.93682e-13
2.30263e-13
8.5818e-14
3.06971e-14
1.02979e-14
4.80954e-15
0
0
0
0
0
0
0
0
0
0
0
0
0
0
0
0
0
0
0
0
0
0
0
0
0
0
0
0
0
0
0
0
1.45607e-20
6.2175e-20
2.5574e-19
1.01321e-18
3.86617e-18
1.42074e-17
5.0277e-17
1.71323e-16
5.62114e-16
1.7757e-15
5.40038e-15
1.58112e-14
4.45619e-14
1.20895e-13
3.15726e-13
7.93962e-13
1.92502e-12
4.51944e-12
1.04113e-11
2.36722e-11
5.52685e-11
2.02152e-10
2.31999e-09
4.23164e-08
7.33374e-07
1.10252e-05
0.000139164
0.00142238
0.0111658
0.061799
0.206238
0.302862
0.291467
0.279574
0.26135
0.210965
0.0862713
8.05151e-08
8.72161e-08
9.0827e-08
9.0933e-08
8.75198e-08
8.09765e-08
7.20229e-08
6.15789e-08
5.06097e-08
3.99823e-08
3.03617e-08
2.21615e-08
1.55482e-08
1.04848e-08
6.79571e-09
4.23345e-09
2.53473e-09
1.45862e-09
8.06708e-10
4.28794e-10
2.19045e-10
1.07539e-10
5.07383e-11
2.3006e-11
1.00248e-11
4.19789e-12
1.68929e-12
6.53265e-13
2.42754e-13
8.65998e-14
2.90512e-14
1.36364e-14
0
0
0
0
0
0
0
0
0
0
0
0
0
0
0
0
0
0
0
0
0
0
0
0
0
0
0
0
0
0
0
0
4.18551e-20
1.79688e-19
7.42941e-19
2.95814e-18
1.13419e-17
4.18717e-17
1.48834e-16
5.09328e-16
1.67797e-15
5.32154e-15
1.62454e-14
4.77358e-14
1.35006e-13
3.67484e-13
9.62708e-13
2.42764e-12
5.89829e-12
1.38655e-11
3.19417e-11
7.21669e-11
1.57696e-10
3.31476e-10
6.70216e-10
1.30343e-09
2.43809e-09
4.38618e-09
7.58886e-09
1.26271e-08
2.02049e-08
3.10895e-08
4.60006e-08
6.54473e-08
8.95333e-08
1.17769e-07
1.48941e-07
1.81104e-07
2.11718e-07
2.37954e-07
2.57112e-07
2.67078e-07
2.66704e-07
2.56027e-07
2.36265e-07
2.09586e-07
1.78716e-07
1.46487e-07
1.15413e-07
8.74034e-08
6.36224e-08
4.45136e-08
2.99343e-08
1.93479e-08
1.20193e-08
7.17624e-09
4.11797e-09
2.27107e-09
1.20374e-09
6.13178e-10
3.00181e-10
1.41227e-10
6.38535e-11
2.77447e-11
1.1585e-11
4.64869e-12
1.79258e-12
6.64236e-13
2.36339e-13
7.92757e-14
3.73888e-14
0
0
0
0
0
0
0
0
0
0
0
0
0
0
0
0
0
0
0
0
0
0
0
0
0
0
0
0
0
0
0
2.5782e-20
1.15569e-19
4.98853e-19
2.07336e-18
8.29697e-18
3.19655e-17
1.18559e-16
4.23301e-16
1.45481e-15
4.81259e-15
1.53231e-14
4.69553e-14
1.38476e-13
3.93005e-13
1.07333e-12
2.82081e-12
7.1344e-12
1.73783e-11
4.09161e-11
9.42647e-11
2.12763e-10
4.64312e-10
9.74622e-10
1.96768e-09
3.82075e-09
7.13511e-09
1.28142e-08
2.21314e-08
3.67567e-08
5.87027e-08
9.01489e-08
1.33116e-07
1.88998e-07
2.58004e-07
3.38631e-07
4.27314e-07
5.18415e-07
6.04654e-07
6.77994e-07
7.30843e-07
7.57344e-07
7.54439e-07
7.22451e-07
6.65025e-07
5.88442e-07
5.00495e-07
4.09182e-07
3.2155e-07
2.42878e-07
1.76331e-07
1.23044e-07
8.25246e-08
5.31969e-08
3.29583e-08
1.96251e-08
1.12311e-08
6.17718e-09
3.26521e-09
1.65874e-09
8.09817e-10
3.79955e-10
1.71321e-10
7.42359e-11
3.0913e-11
1.23704e-11
4.75711e-12
1.75794e-12
6.23897e-13
2.09205e-13
9.90597e-14
0
0
0
0
0
0
0
0
0
0
0
0
0
0
0
0
0
0
0
0
0
0
0
0
0
0
0
0
0
0
1.45214e-20
6.79944e-20
3.06529e-19
1.33038e-18
5.55858e-18
2.23566e-17
8.6552e-17
3.22519e-16
1.15669e-15
3.99249e-15
1.3262e-14
4.23934e-14
1.30403e-13
3.85978e-13
1.09927e-12
3.01226e-12
7.94182e-12
2.01469e-11
4.92038e-11
1.16043e-10
2.67413e-10
6.03079e-10
1.3146e-09
2.75603e-09
5.55687e-09
1.07749e-08
2.0092e-08
3.60279e-08
6.21225e-08
1.03e-07
1.64208e-07
2.51714e-07
3.70989e-07
5.2571e-07
7.16228e-07
9.38138e-07
1.18136e-06
1.43017e-06
1.66446e-06
1.86223e-06
2.00288e-06
2.07077e-06
2.05806e-06
1.96617e-06
1.80559e-06
1.59383e-06
1.35233e-06
1.10289e-06
8.64551e-07
6.51397e-07
4.71731e-07
3.28344e-07
2.19656e-07
1.41232e-07
8.72759e-08
5.18345e-08
2.95871e-08
1.62308e-08
8.55712e-09
4.33571e-09
2.11121e-09
9.87961e-10
4.44303e-10
1.9202e-10
7.97513e-11
3.18309e-11
1.22089e-11
4.5e-12
1.59316e-12
5.33743e-13
2.53277e-13
0
0
0
0
0
0
0
0
0
0
0
0
0
0
0
0
0
0
0
0
0
0
0
0
0
0
0
0
0
0
3.65671e-20
1.72245e-19
7.80975e-19
3.40831e-18
1.43162e-17
5.78736e-17
2.25152e-16
8.42935e-16
3.03679e-15
1.05273e-14
3.51144e-14
1.12694e-13
3.47975e-13
1.03374e-12
2.95441e-12
8.123e-12
2.14851e-11
5.46689e-11
1.33875e-10
3.16308e-10
7.29207e-10
1.64346e-09
3.57893e-09
7.49514e-09
1.50946e-08
2.92325e-08
5.44373e-08
9.7477e-08
1.6783e-07
2.77834e-07
4.42222e-07
6.76739e-07
9.95678e-07
1.40839e-06
1.91524e-06
2.50387e-06
3.14687e-06
3.80203e-06
4.41586e-06
4.93024e-06
5.29137e-06
5.45893e-06
5.41351e-06
5.16032e-06
4.72817e-06
4.16411e-06
3.52499e-06
2.86811e-06
2.24299e-06
1.68597e-06
1.21802e-06
8.45745e-07
5.64415e-07
3.62016e-07
2.23162e-07
1.32213e-07
7.52806e-08
4.1195e-08
2.16647e-08
1.09498e-08
5.31863e-09
2.48274e-09
1.11377e-09
4.80164e-10
1.98936e-10
7.92065e-11
3.03062e-11
1.11435e-11
3.93611e-12
1.31602e-12
6.23528e-13
0
0
0
0
0
0
0
0
0
0
0
0
0
0
0
0
0
0
0
0
0
0
0
0
0
0
0
0
0
1.79618e-20
8.84438e-20
4.19121e-19
1.91137e-18
8.38807e-18
3.54218e-17
1.4393e-16
5.62708e-16
2.11667e-15
7.6602e-15
2.66705e-14
8.93323e-14
2.87845e-13
8.9221e-13
2.66024e-12
7.62967e-12
2.1048e-11
5.58503e-11
1.42545e-10
3.50027e-10
8.28623e-10
1.91137e-09
4.30568e-09
9.36874e-09
1.96024e-08
3.9438e-08
7.62926e-08
1.41906e-07
2.53781e-07
4.36361e-07
7.21358e-07
1.14647e-06
1.75176e-06
2.57321e-06
3.63375e-06
4.93297e-06
6.43763e-06
8.07606e-06
9.73919e-06
1.12899e-05
1.25803e-05
1.34747e-05
1.38731e-05
1.37291e-05
1.30594e-05
1.19401e-05
1.04929e-05
8.86295e-06
7.19533e-06
5.61446e-06
4.21063e-06
3.03503e-06
2.10258e-06
1.39994e-06
8.95841e-07
5.50953e-07
3.25654e-07
1.84992e-07
1.00995e-07
5.29906e-08
2.67204e-08
1.29488e-08
6.03059e-09
2.69917e-09
1.16101e-09
4.79935e-10
1.90661e-10
7.27909e-11
2.67069e-11
9.41374e-12
3.13457e-12
1.47258e-12
0
0
0
0
0
0
0
0
0
0
0
0
0
0
0
0
0
0
0
0
0
0
0
0
0
0
0
0
0
4.14645e-20
2.05468e-19
9.7962e-19
4.49365e-18
1.98313e-17
8.4197e-17
3.4389e-16
1.35115e-15
5.10665e-15
1.85653e-14
6.49216e-14
2.18366e-13
7.0644e-13
2.19812e-12
6.5781e-12
1.89327e-11
5.24059e-11
1.39505e-10
3.57146e-10
8.79446e-10
2.0862e-09
4.8157e-09
1.08446e-08
2.3581e-08
4.93015e-08
9.91042e-08
1.91535e-07
3.55891e-07
6.35755e-07
1.09184e-06
1.80264e-06
2.86114e-06
4.36554e-06
6.40322e-06
9.02842e-06
1.22369e-05
1.59431e-05
1.99667e-05
2.40363e-05
2.78132e-05
3.09351e-05
3.30721e-05
3.39843e-05
3.35657e-05
3.18648e-05
2.90749e-05
2.54984e-05
2.14928e-05
1.74122e-05
1.35579e-05
1.01462e-05
7.29776e-06
5.04478e-06
3.35167e-06
2.14015e-06
1.31337e-06
7.74626e-07
4.39091e-07
2.39206e-07
1.25241e-07
6.30192e-08
3.04757e-08
1.4164e-08
6.32663e-09
2.71588e-09
1.12047e-09
4.44267e-10
1.69294e-10
6.20002e-11
2.18155e-11
7.20969e-12
3.318e-12
0
0
0
0
0
0
0
0
0
0
0
0
0
0
0
0
0
0
0
0
0
0
0
0
0
0
0
0
1.77331e-20
9.19348e-20
4.58484e-19
2.1994e-18
1.01486e-17
4.50414e-17
1.9227e-16
7.89393e-16
3.11705e-15
1.18373e-14
4.32321e-14
1.51844e-13
5.12883e-13
1.66593e-12
5.2036e-12
1.56298e-11
4.51436e-11
1.2538e-10
3.34839e-10
8.59849e-10
2.12334e-09
5.0478e-09
1.16623e-08
2.6258e-08
5.70676e-08
1.19239e-07
2.3952e-07
4.6254e-07
8.5868e-07
1.53243e-06
2.62899e-06
4.33559e-06
6.8731e-06
1.04736e-05
1.53415e-05
2.16007e-05
2.92338e-05
3.80293e-05
4.75512e-05
5.71491e-05
6.60174e-05
7.33e-05
7.82245e-05
8.02363e-05
7.91017e-05
7.49522e-05
6.82597e-05
5.9748e-05
5.02641e-05
4.06414e-05
3.15828e-05
2.35888e-05
1.69329e-05
1.16822e-05
7.74618e-06
4.93649e-06
3.02355e-06
1.77984e-06
1.00697e-06
5.4754e-07
2.86144e-07
1.43722e-07
6.93796e-08
3.21893e-08
1.43537e-08
6.15168e-09
2.53396e-09
1.00319e-09
3.81727e-10
1.39607e-10
4.9059e-11
1.60113e-11
7.08012e-12
0
0
0
0
0
0
0
0
0
0
0
0
0
0
0
0
0
0
0
0
0
0
0
0
0
0
0
0
3.75098e-20
1.95777e-19
9.82681e-19
4.74334e-18
2.20174e-17
9.82761e-17
4.21814e-16