# vtk DataFile Version 2.0
Structured output generated by Nextsim
ASCII
DATASET STRUCTURED_POINTS
DIMENSIONS 3 3 1
ORIGIN 0 0 0
SPACING 0.5 0.5 0.5
POINT_DATA 9
SCALARS interpolate DOUBLE 1
LOOKUP_TABLE default
1.58792e-08
4.17955e-07
8.20032e-07
8.04225e-09
5.51298e-06
1.10179e-05
2.05343e-10
1.0608e-05
2.12158e-05
CELL_DATA 4
SCALARS average DOUBLE 1
LOOKUP_TABLE default
1.58792e-08
8.20032e-07
2.05343e-10
2.12158e-05
