# vtk DataFile Version 2.0
Structured output generated by Nextsim
ASCII
DATASET STRUCTURED_POINTS
DIMENSIONS 101 101 1
ORIGIN 0 0 0
SPACING 0.01 0.01 0.01
POINT_DATA 10201
SCALARS interpolate DOUBLE 1
LOOKUP_TABLE default
0
0
0
0
0
0
0
0
0
0
0
0
0
0
0
0
0
0
0
0
0
0
0
0
0
0
0
0
0
0
0
0
0
0
0
0
0
0
0
0
0
0
0
0
0
0
0
0
0
0
0
0
0
0
0
0
0
0
0
0
0
0
0
0
0
0
0
0
0
0
0
0
0
0
0
0
0
0
0
0
0
0
0
0
0
0
0
0
0
0
0
0
0
0
0
0
0
0
0
0
0
0
0
0
0
0
0
0
0
0
0
0
0
0
0
0
0
0
0
0
0
0
0
0
0
0
0
0
0
0
0
0
0
0
0
0
0
0
0
0
0
0
0
0
0
0
0
0
0
0
0
0
0
0
0
0
0
0
0
0
0
0
0
0
0
0
0
0
0
0
0
0
0
0
0
0
0
0
0
0
0
0
0
0
0
0
0
0
0
0
0
0
0
0
0
0
0
0
0
0
0
0
0
0
0
0
0
0
0
0
0
0
0
0
0
0
0
0
0
0
0
0
0
0
0
0
0
0
0
0
0
0
0
0
0
0
0
0
0
0
0
0
0
0
0
0
0
0
0
0
0
0
0
0
0
0
0
0
0
0
0
0
0
0
0
0
0
0
0
0
0
0
0
0
0
0
0
0
0
0
0
0
0
0
0
0
0
0
0
0
0
0
0
0
0
0
0
0
0
0
0
0
0
0
0
0
0
0
0
0
0
0
0
0
0
0
0
0
0
0
0
0
0
0
0
0
0
0
0
0
0
0
0
0
0
0
0
0
0
0
0
0
0
0
0
0
0
0
0
0
0
0
0
0
0
0
0
0
0
0
0
0
0
0
0
0
0
0
0
0
0
0
0
0
0
0
0
0
0
0
0
0
0
0
0
0
0
0
0
0
0
0
0
0
0
0
0
0
0
0
0
0
0
0
0
0
0
0
0
0
0
0
0
0
0
0
0
0
0
0
0
0
0
0
0
0
0
0
0
0
0
0
0
0
0
0
0
0
0
0
0
0
0
0
0
0
0
0
0
0
0
0
0
0
0
0
0
0
0
0
0
0
0
0
0
0
0
0
0
0
0
0
0
0
0
0
0
0
0
0
0
0
0
0
0
0
0
0
0
0
0
0
0
0
0
0
0
0
0
0
0
0
0
0
0
0
0
0
0
0
0
0
0
0
0
0
0
0
0
0
0
0
0
0
0
0
0
0
0
0
0
0
0
0
0
0
0
0
0
0
0
0
0
0
0
0
0
0
0
0
0
0
0
0
0
0
0
0
0
0
0
0
0
0
0
0
0
0
0
0
0
1.13202e-20
1.5737e-20
0
0
0
0
0
0
0
0
0
0
0
0
0
0
0
0
0
0
0
0
0
0
0
0
0
0
0
0
0
0
0
0
0
0
0
0
0
0
0
0
0
0
0
0
0
0
0
0
0
0
0
0
0
0
0
0
0
0
0
0
0
0
0
0
0
0
0
0
0
0
0
0
0
0
0
0
0
0
0
0
0
0
0
0
0
0
0
0
0
0
0
0
0
0
0
1.59407e-20
4.73023e-20
1.2094e-19
2.78694e-19
5.37712e-19
7.22562e-19
4.15934e-19
8.04798e-20
4.59452e-20
0
0
0
0
0
0
0
0
0
0
0
0
0
0
0
0
0
0
0
0
0
0
0
0
0
0
0
0
0
0
0
0
0
0
0
0
0
0
0
0
0
0
0
0
0
0
0
0
0
0
0
0
0
0
0
0
0
0
0
0
0
0
0
0
0
0
0
0
0
0
0
0
0
0
0
0
0
0
0
0
0
0
0
0
0
0
0
0
0
0
3.77686e-20
2.17832e-19
8.82098e-19
2.46622e-18
5.91696e-18
1.289e-17
2.37424e-17
3.08229e-17
1.74434e-17
3.31339e-18
1.86344e-18
3.47118e-19
1.84821e-19
0
0
0
0
0
0
0
0
0
0
0
0
0
0
0
0
0
0
0
0
0
0
0
0
0
0
0
0
0
0
0
0
0
0
0
0
0
0
0
0
0
0
0
0
0
0
0
0
0
0
0
0
0
0
0
0
0
0
0
0
0
0
0
0
0
0
0
0
0
0
0
0
0
0
0
0
0
0
0
0
0
0
0
0
0
0
2.94184e-20
2.80431e-19
2.09562e-18
1.16618e-17
4.527e-17
1.19279e-16
2.6832e-16
5.52099e-16
9.70017e-16
1.21594e-15
6.76531e-16
1.2673e-16
7.02158e-17
1.29527e-17
6.80904e-18
3.40556e-19
0
0
0
0
0
0
0
0
0
0
0
0
0
0
0
0
0
0
0
0
0
0
0
0
0
0
0
0
0
0
0
0
0
0
0
0
0
0
0
0
0
0
0
0
0
0
0
0
0
0
0
0
0
0
0
0
0
0
0
0
0
0
0
0
0
0
0
0
0
0
0
0
0
0
0
0
0
0
0
0
0
0
0
1.05799e-20
1.4315e-19
1.6176e-18
1.48738e-17
1.07267e-16
5.75586e-16
2.14275e-15
5.32228e-15
1.1217e-14
2.1781e-14
3.64728e-14
4.41219e-14
2.41377e-14
4.48233e-15
2.447e-15
4.48996e-16
2.33028e-16
1.19691e-17
1.85061e-20
0
0
0
0
0
0
0
0
0
0
0
0
0
0
0
0
0
0
0
0
0
0
0
0
0
0
0
0
0
0
0
0
0
0
0
0
0
0
0
0
0
0
0
0
0
0
0
0
0
0
0
0
0
0
0
0
0
0
0
0
0
0
0
0
0
0
0
0
0
0
0
0
0
0
0
0
0
0
0
0
0
3.80417e-20
5.80655e-19
7.54449e-18
8.19251e-17
7.24739e-16
5.03438e-15
2.60233e-14
9.29297e-14
2.17682e-13
4.29507e-13
7.86429e-13
1.25408e-12
1.4633e-12
7.87304e-13
1.45819e-13
7.84548e-14
1.43921e-14
7.37476e-15
3.90657e-16
6.68095e-19
0
0
0
0
0
0
0
0
0
0
0
0
0
0
0
0
0
0
0
0
0
0
0
0
0
0
0
0
0
0
0
0
0
0
0
0
0
0
0
0
0
0
0
0
0
0
0
0
0
0
0
0
0
0
0
0
0
0
0
0
0
0
0
0
0
0
0
0
0
0
0
0
0
0
0
0
0
0
0
0
1.19182e-19
2.01646e-18
2.94254e-17
3.65571e-16
3.79967e-15
3.22298e-14
2.15098e-13
1.06955e-12
3.66406e-12
8.09783e-12
1.49484e-11
2.5789e-11
3.91321e-11
4.40198e-11
2.33025e-11
4.33567e-12
2.29984e-12
4.24301e-13
2.14689e-13
1.17868e-14
2.24882e-17
3.67494e-20
0
0
0
0
0
0
0
0
0
0
0
0
0
0
0
0
0
0
0
0
0
0
0
0
0
0
0
0
0
0
0
0
0
0
0
0
0
0
0
0
0
0
0
0
0
0
0
0
0
0
0
0
0
0
0
0
0
0
0
0
0
0
0
0
0
0
0
0
0
0
0
0
0
0
0
0
0
1.56936e-20
3.31328e-19
6.13434e-18
9.87893e-17
1.37077e-15
1.61952e-14
1.603e-13
1.29804e-12
8.29479e-12
3.95931e-11
1.30102e-10
2.71425e-10
4.68471e-10
7.60954e-10
1.0979e-09
1.19012e-09
6.20267e-10
1.16933e-10
6.1187e-11
1.14326e-11
5.71333e-12
3.26986e-13
7.02981e-16
1.27267e-18
0
0
0
0
0
0
0
0
0
0
0
0
0
0
0
0
0
0
0
0
0
0
0
0
0
0
0
0
0
0
0
0
0
0
0
0
0
0
0
0
0
0
0
0
0
0
0
0
0
0
0
0
0
0
0
0
0
0
0
0
0
0
0
0
0
0
0
0
0
0
0
0
0
0
0
0
3.63485e-20
8.29105e-19
1.66542e-17
2.92481e-16
4.45637e-15
5.84081e-14
6.51733e-13
6.10281e-12
4.69072e-11
2.85709e-10
1.30527e-09
4.11193e-09
8.10227e-09
1.30678e-08
1.99723e-08
2.738e-08
2.85899e-08
1.46856e-08
2.83442e-09
1.46432e-09
2.79417e-10
1.37966e-10
8.288e-12
2.03146e-14
4.10927e-17
0
0
0
0
0
0
0
0
0
0
0
0
0
0
0
0
0
0
0
0
0
0
0
0
0
0
0
0
0
0
0
0
0
0
0
0
0
0
0
0
0
0
0
0
0
0
0
0
0
0
0
0
0
0
0
0
0
0
0
0
0
0
0
0
0
0
0
0
0
0
0
0
0
0
0
7.68473e-20
1.88433e-18
4.08573e-17
7.77109e-16
1.28711e-14
1.84271e-13
2.26321e-12
2.36453e-11
2.0769e-10
1.50382e-09
8.67747e-09
3.77816e-08
1.13985e-07
2.12244e-07
3.1973e-07
4.59526e-07
5.98196e-07
6.01549e-07
3.05035e-07
6.10546e-08
3.11809e-08
6.13787e-09
2.99622e-09
1.90492e-10
5.39783e-13
1.23218e-15
0
0
0
0
0
0
0
0
0
0
0
0
0
0
0
0
0
0
0
0
0
0
0
0
0
0
0
0
0
0
0
0
0
0
0
0
0
0
0
0
0
0
0
0
0
0
0
0
0
0
0
0
0
0
0
0
0
0
0
0
0
0
0
0
0
0
0
0
0
0
0
0
0
0
1.52536e-19
3.90349e-18
9.09935e-17
1.86807e-15
3.34857e-14
5.20023e-13
6.94407e-12
7.91919e-11
7.66478e-10
6.24556e-09
4.21743e-08
2.2863e-07
9.42806e-07
2.71884e-06
4.78632e-06
6.7319e-06
9.09414e-06
1.12357e-05
1.0881e-05
5.46103e-06
1.15211e-06
5.82753e-07
1.19822e-07
5.78808e-08
3.93408e-09
1.3105e-11
3.41545e-14
0
0
0
0
0
0
0
0
0
0
0
0
0
0
0
0
0
0
0
0
0
0
0
0
0
0
0
0
0
0
0
0
0
0
0
0
0
0
0
0
0
0
0
0
0
0
0
0
0
0
0
0
0
0
0
0
0
0
0
0
0
0
0
0
0
0
0
0
0
0
0
0
1.0415e-20
2.89403e-19
7.53885e-18
1.83531e-16
4.05359e-15
7.85107e-14
1.32077e-12
1.91292e-11
2.36528e-10
2.47988e-09
2.19538e-08
1.6359e-07
1.01628e-06
5.11624e-06
1.97958e-05
5.43823e-05
9.05396e-05
0.000118869
0.00015089
0.000176877
0.000165023
8.23197e-05
1.86968e-05
9.39365e-06
2.04945e-06
9.81061e-07
7.21877e-08
2.88526e-10
8.70464e-13
0
0
0
0
0
0
0
0
0
0
0
0
0
0
0
0
0
0
0
0
0
0
0
0
0
0
0
0
0
0
0
0
0
0
0
0
0
0
0
0
0
0
0
0
0
0
0
0
0
0
0
0
0
0
0
0
0
0
0
0
0
0
0
0
0
0
0
0
0
0
0
1.81721e-20
5.15778e-19
1.3713e-17
3.40412e-16
7.86104e-15
1.63983e-13
2.98706e-12
4.70014e-11
6.32142e-10
7.19175e-09
6.86382e-08
5.47726e-07
3.6641e-06
2.05518e-05
9.45125e-05
0.000338132
0.000879525
0.0013847
0.00169711
0.00202427
0.00225149
0.002026
0.00101175
0.000254557
0.000127623
3.01534e-05
1.43358e-05
1.16037e-06
5.70831e-09
2.02691e-11
0
0
0
0
0
0
0
0
0
0
0
0
0
0
0
0
0
0
0
0
0
0
0
0
0
0
0
0
0
0
0
0
0
0
0
0
0
0
0
0
0
0
0
0
0
0
0
0
0
0
0
0
0
0
0
0
0
0
0
0
0
0
0
0
0
0
0
0
0
0
2.88978e-20
8.40365e-19
2.28762e-17
5.80979e-16
1.3713e-14
2.99491e-13
5.88194e-12
1.00496e-10
1.47534e-09
1.83713e-08
1.91399e-07
1.64836e-06
1.16726e-05
6.84752e-05
0.000337714
0.00138483
0.00447165
0.010885
0.0161892
0.0185347
0.0207863
0.0219544
0.0191066
0.00967882
0.00280879
0.00141606
0.000372364
0.000176457
1.60445e-05
1.00353e-07
4.27974e-10
0
0
0
0
0
0
0
0
0
0
0
0
0
0
0
0
0
0
0
0
0
0
0
0
0
0
0
0
0
0
0
0
0
0
0
0
0
0
0
0
0
0
0
0
0
0
0
0
0
0
0
0
0
0
0
0
0
0
0
0
0
0
0
0
0
0
0
0
0
4.03162e-20
1.20498e-18
3.36953e-17
8.78535e-16
2.12733e-14
4.76231e-13
9.80393e-12
1.80665e-10
2.88768e-09
3.94744e-08
4.54274e-07
4.32172e-06
3.33642e-05
0.000206454
0.00103151
0.00430386
0.0151659
0.0423337
0.0940279
0.131649
0.141098
0.149104
0.149965
0.1271
0.0671152
0.0238602
0.0122654
0.00372959
0.00177233
0.000186263
1.54575e-06
8.11944e-09
0
0
0
0
0
0
0
0
0
0
0
0
0
0
0
0
0
0
0
0
0
0
0
0
0
0
0
0
0
0
0
0
0
0
0
0
0
0
0
0
0
0
0
0
0
0
0
0
0
0
0
0
0
0
0
0
0
0
0
0
0
0
0
0
0
0
0
0
4.67926e-20
1.4416e-18
4.15394e-17
1.1156e-15
2.78124e-14
6.40667e-13
1.35622e-11
2.62142e-10
4.5146e-09
6.73057e-08
8.54991e-07
9.08076e-06
7.87613e-05
0.000542712
0.00289447
0.0118905
0.0395684
0.112838
0.25012
0.473849
0.616686
0.623512
0.625674
0.605092
0.509953
0.300142
0.14369
0.0774498
0.0288043
0.0138785
0.00175557
2.04856e-05
1.36856e-07
0
0
0
0
0
0
0
0
0
0
0
0
0
0
0
0
0
0
0
0
0
0
0
0
0
0
0
0
0
0
0
0
0
0
0
0
0
0
0
0
0
0
0
0
0
0
0
0
0
0
0
0
0
0
0
0
0
0
0
0
0
0
0
0
0
0
0
4.16736e-20
1.32702e-18
3.95164e-17
1.09655e-15
2.82401e-14
6.71824e-13
1.46827e-11
2.92879e-10
5.29082e-09
8.47537e-08
1.17414e-06
1.38204e-05
0.000135165
0.00106659
0.00653494
0.0296731
0.0961634
0.232073
0.482046
0.711939
0.889879
0.999927
0.999358
0.995415
0.974457
0.896125
0.719165
0.529315
0.319568
0.158266
0.0790722
0.0127935
0.000228032
2.02055e-06
1.55656e-20
1.30752e-20
1.05603e-20
0
0
0
0
0
0
0
0
0
0
0
0
0
0
0
0
0
0
0
0
0
0
0
0
0
0
0
0
0
0
0
0
0
0
0
0
0
0
0
0
0
0
0
0
0
0
0
0
0
0
0
0
0
0
0
0
0
0
0
0
0
0
0
2.46558e-20
8.13764e-19
2.51173e-17
7.22463e-16
1.92872e-14
4.75663e-13
1.07776e-11
2.22907e-10
4.17573e-09
7.01862e-08
1.0407e-06
1.33357e-05
0.000144755
0.00129659
0.00924534
0.0498884
0.189484
0.461089
0.69649
0.883078
1
1
1
0.999994
0.99994
0.999456
0.995986
0.976919
0.90326
0.731178
0.537208
0.293658
0.0668486
0.00206214
2.56561e-05
9.46778e-20
7.92118e-20
6.37505e-20
4.93242e-20
3.66867e-20
2.62314e-20
1.80296e-20
1.19123e-20
0
0
0
0
0
0
0
0
0
0
0
0
0
0
0
0
0
0
0
0
0
0
0
0
0
0
0
0
0
0
0
0
0
0
0
0
0
0
0
0
0
0
0
0
0
0
0
0
0
0
0
0
0
0
0
0
0
0
2.38909e-19
7.68087e-18
2.30238e-16
6.40944e-15
1.64953e-13
3.90385e-12
8.4431e-11
1.65635e-09
2.92105e-08
4.58e-07
6.29545e-06
7.4497e-05
0.000741197
0.00600384
0.0378193
0.172967
0.516328
0.875849
1
1
1
1
1
1
1
0.999995
0.999945
0.999469
0.9958
0.973731
0.877446
0.607647
0.221815
0.0144364
0.000273407
5.55496e-19
4.63233e-19
3.71544e-19
2.86489e-19
2.12364e-19
1.51328e-19
1.03661e-19
6.82584e-20
4.32052e-20
2.62873e-20
1.53736e-20
0
0
0
0
0
0
0
0
0
0
0
0
0
0
0
0
0
0
0
0
0
0
0
0
0
0
0
0
0
0
0
0
0
0
0
0
0
0
0
0
0
0
0
0
0
0
0
0
0
0
0
0
0
0
1.26686e-20
4.40925e-19
1.43574e-17
4.35851e-16
1.22859e-14
3.20075e-13
7.6649e-12
1.67636e-10
3.32262e-09
5.91252e-08
9.3368e-07
1.28472e-05
0.000150492
0.00146199
0.0113657
0.0671659
0.279115
0.721992
1
1
1
1
1
1
1
1
0.999999
0.999992
0.99991
0.999101
0.992728
0.954371
0.793593
0.403061
0.0726575
0.00236345
3.14149e-18
2.61468e-18
2.09026e-18
1.60646e-18
1.18691e-18
8.4301e-19
5.75582e-19
3.77773e-19
2.38339e-19
1.44542e-19
8.42585e-20
4.72118e-20
2.5427e-20
1.31625e-20
0
0
0
0
0
0
0
0
0
0
0
0
0
0
0
0
0
0
0
0
0
0
0
0
0
0
0
0
0
0
0
0
0
0
0
0
0
0
0
0
0
0
0
0
0
0
0
0
0
0
0
6.89625e-20
2.39598e-18
7.76132e-17
2.33481e-15
6.49304e-14
1.6604e-12
3.87995e-11
8.22324e-10
1.56656e-08
2.65297e-07
3.93884e-06
5.03504e-05
0.000540964
0.00472768
0.0320676
0.157225
0.497564
0.868173
1
1
1
1
1
1
1
1
1
0.999997
0.999962
0.999609
0.996683
0.977796
0.88962
0.626887
0.233788
0.0157637
1.71517e-17
1.42426e-17
1.13499e-17
8.69533e-18
6.40411e-18
4.5342e-18
3.08605e-18
2.0191e-18
1.26986e-18
7.67691e-19
4.46113e-19
2.49185e-19
1.33785e-19
6.90397e-20
3.4244e-20
1.63252e-20
0
0
0
0
0
0
0
0
0
0
0
0
0
0
0
0
0
0
0
0
0
0
0
0
0
0
0
0
0
0
0
0
0
0
0
0
0
0
0
0
0
0
0
0
0
0
0
0
0
1.20319e-19
4.2387e-18
1.39225e-16
4.24661e-15
1.19724e-13
3.10293e-12
7.34541e-11
1.57603e-09
3.03635e-08
5.19211e-07
7.76557e-06
9.92504e-05
0.00105151
0.00890414
0.0571795
0.256809
0.707574
1
1
1
1
1
1
1
1
1
1
1
0.999995
0.999938
0.999339
0.99423
0.961009
0.810837
0.419605
0.0749426
9.03229e-17
7.48606e-17
5.94745e-17
4.54253e-17
3.33537e-17
2.3543e-17
1.5975e-17
1.04201e-17
6.53354e-18
3.93787e-18
2.2814e-18
1.27047e-18
6.80046e-19
3.49879e-19
1.7302e-19
8.22366e-20
3.7568e-20
1.64948e-20
0
0
0
0
0
0
0
0
0
0
0
0
0
0
0
0
0
0
0
0
0
0
0
0
0
0
0
0
0
0
0
0
0
0
0
0
0
0
0
0
0
0
0
0
0
0
1.77731e-20
6.71921e-19
2.36839e-17
7.75204e-16
2.34538e-14
6.52411e-13
1.65807e-11
3.82112e-10
7.913e-09
1.45613e-07
2.34789e-06
3.25787e-05
0.000379956
0.00360554
0.0265461
0.140898
0.477631
0.860023
1
1
1
1
1
1
1
1
1
1
1
0.999998
0.999975
0.999718
0.997407
0.981255
0.899663
0.637561
0.221488
4.59839e-16
3.79628e-16
3.00718e-16
2.29007e-16
1.67655e-16
1.17993e-16
7.98286e-17
5.19175e-17
3.24575e-17
1.95054e-17
1.12674e-17
6.25624e-18
3.33902e-18
1.7129e-18
8.44587e-19
4.00268e-19
1.82323e-19
7.98205e-20
3.35861e-20
1.35822e-20
0
0
0
0
0
0
0
0
0
0
0
0
0
0
0
0
0
0
0
0
0
0
0
0
0
0
0
0
0
0
0
0
0
0
0
0
0
0
0
0
0
0
0
0
2.51735e-20
9.60763e-19
3.41985e-17
1.13052e-15
3.45467e-14
9.70614e-13
2.49128e-11
5.79718e-10
1.21172e-08
2.24909e-07
3.65379e-06
5.09874e-05
0.000596536
0.00565696
0.0413075
0.21387
0.677671
1
1
1
1
1
1
1
1
1
1
1
1
1
0.999997
0.999951
0.999422
0.994479
0.959361
0.787951
0.323601
2.25998e-15
1.85717e-15
1.46697e-15
1.11399e-15
8.13241e-16
5.70726e-16
3.85034e-16
2.49703e-16
1.55666e-16
9.32832e-17
5.37333e-17
2.97513e-17
1.58338e-17
8.09978e-18
3.98256e-18
1.88212e-18
8.54907e-19
3.73227e-19
1.56604e-19
6.31539e-20
2.44771e-20
0
0
0
0
0
0
0
0
0
0
0
0
0
0
0
0
0
0
0
0
0
0
0
0
0
0
0
0
0
0
0
0
0
0
0
0
0
0
0
0
0
0
0
1.3207e-20
5.20462e-19
1.91875e-17
6.57602e-16
2.08517e-14
6.0843e-13
1.62333e-11
3.93037e-10
8.5563e-09
1.65586e-07
2.80816e-06
4.09643e-05
0.00050134
0.00497088
0.0379133
0.204565
0.671159
0.999999
1
1
1
1
1
1
1
1
1
1
1
1
0.999997
0.999961
0.999513
0.995135
0.962616
0.79689
0.329859
1.06954e-14
8.76354e-15
6.90348e-15
5.22809e-15
3.80624e-15
2.66391e-15
1.79227e-15
1.15916e-15
7.20653e-16
4.30674e-16
2.47402e-16
1.36609e-16
7.25061e-17
3.69895e-17
1.81378e-17
8.54847e-18
3.87241e-18
1.686e-18
7.05521e-19
2.83748e-19
1.09678e-19
4.07413e-20
1.45199e-20
0
0
0
0
0
0
0
0
0
0
0
0
0
0
0
0
0
0
0
0
0
0
0
0
0
0
0
0
0
0
0
0
0
0
0
0
0
0
0
0
0
0
2.58103e-19
9.94864e-18
3.57235e-16
1.18727e-14
3.63195e-13
1.0161e-11
2.58004e-10
5.89095e-09
1.19578e-07
2.12697e-06
3.25393e-05
0.000417525
0.00433818
0.0346376
0.195193
0.66447
0.999963
1
1
1
1
1
1
1
1
1
1
1
1
0.999998
0.999967
0.999577
0.995597
0.964898
0.80308
0.334172
4.88016e-14
3.98835e-14
3.13361e-14
2.36691e-14
1.71868e-14
1.19971e-14
8.0504e-15
5.19293e-15
3.21998e-15
1.91925e-15
1.09962e-15
6.05584e-16
3.20572e-16
1.63112e-16
7.97719e-17
3.74983e-17
1.6942e-17
7.35699e-18
3.07054e-18
1.23169e-18
4.74847e-19
1.7593e-19
6.25481e-20
2.07942e-20
0
0
0
0
0
0
0
0
0
0
0
0
0
0
0
0
0
0
0
0
0
0
0
0
0
0
0
0
0
0
0
0
0
0
0
0
0
0
0
0
0
1.253e-19
4.98158e-18
1.87735e-16
6.55775e-15
2.10884e-13
6.20266e-12
1.65587e-10
3.97518e-09
8.48372e-08
1.58646e-06
2.55115e-05
0.000343976
0.00375347
0.0314408
0.185446
0.656412
0.998971
0.999998
1
1
1
1
1
1
1
1
1
1
1
0.999998
0.999964
0.999531
0.995125
0.961753
0.792059
0.325867
2.14719e-13
1.75042e-13
1.37183e-13
1.03358e-13
7.48617e-14
5.21246e-14
3.48887e-14
2.24481e-14
1.38841e-14
8.25456e-15
4.71737e-15
2.59137e-15
1.36829e-15
6.94438e-16
3.38762e-16
1.58838e-16
7.15819e-17
3.10055e-17
1.29078e-17
5.16464e-18
1.98607e-18
7.33985e-19
2.60339e-19
8.64764e-20
3.99431e-20
0
0
0
0
0
0
0
0
0
0
0
0
0
0
0
0
0
0
0
0
0
0
0
0
0
0
0
0
0
0
0
0
0
0
0
0
0
0
0
0
6.8078e-20
2.41902e-18
9.47165e-17
3.4801e-15
1.1782e-13
3.64827e-12
1.02518e-10
2.58991e-09
5.8143e-08
1.14306e-06
1.9307e-05
0.000273182
0.00312614
0.0274374
0.169333
0.625213
0.980385
0.999938
1
1
1
1
1
1
1
1
1
1
1
0.999994
0.99992
0.999033
0.990769
0.936038
0.710459
0.266083
9.10865e-13
7.40762e-13
5.79148e-13
4.35292e-13
3.14516e-13
2.18459e-13
1.45866e-13
9.36243e-14
5.77651e-14
3.42594e-14
1.95309e-14
1.07026e-14
5.63729e-15
2.85406e-15
1.38886e-15
6.49609e-16
2.92037e-16
1.26185e-16
5.24033e-17
2.09162e-17
8.02372e-18
2.95809e-18
1.04682e-18
3.47449e-19
1.60836e-19
0
0
0
0
0
0
0
0
0
0
0
0
0
0
0
0
0
0
0
0
0
0
0
0
0
0
0
0
0
0
0
0
0
0
0
0
0
0
0
1.65227e-20
7.0514e-20
9.53943e-19
3.28687e-17
1.2303e-15
4.29208e-14
1.37015e-12
3.96865e-11
1.03353e-09
2.3931e-08
4.85848e-07
8.49493e-06
0.000124826
0.00149013
0.0137641
0.0911412
0.379878
0.799644
0.998513
0.999996
0.999999
1
1
1
1
1
1
1
1
0.999998
0.999978
0.999744
0.997253
0.976292
0.857398
0.486529
0.107934
3.72508e-12
3.02244e-12
2.35756e-12
1.76784e-12
1.27437e-12
8.83092e-13
5.88265e-13
3.76693e-13
2.31869e-13
1.37194e-13
7.80284e-14
4.26573e-14
2.24155e-14
1.13218e-14
5.49646e-15
2.56477e-15
1.15029e-15
4.95848e-16
2.05434e-16
8.18029e-17
3.13065e-17
1.15146e-17
4.06581e-18
1.34851e-18
6.25648e-19
0
0
0
0
0
0
0
0
0
0
0
0
0
0
0
0
0
0
0
0
0
0
0
0
0
0
0
0
0
0
0
0
0
0
0
0
0
0
1.93747e-20
6.58192e-20
2.161e-19
7.19095e-19
3.68947e-18
6.48163e-17
1.97155e-15
6.02358e-14
1.72287e-12
4.60187e-11
1.15041e-09
2.68389e-08
5.76809e-07
1.09152e-05
0.000173171
0.0022198
0.0217796
0.149553
0.605793
0.975863
0.999892
0.999983
0.99999
0.999998
0.999999
1
1
1
0.999999
0.999996
0.999977
0.999876
0.99907
0.992636
0.946117
0.73292
0.280265
1.74381e-11
1.4685e-11
1.18887e-11
9.25281e-12
6.92287e-12
4.97926e-12
3.44272e-12
2.28818e-12
1.46192e-12
8.97839e-13
5.30035e-13
3.00772e-13
1.64055e-13
8.60115e-14
4.33443e-14
2.09947e-14
9.77425e-15
4.3737e-15
1.88105e-15
7.77553e-16
3.08912e-16
1.17953e-16
4.32846e-17
1.52511e-17
5.05505e-18
2.35081e-18
0
0
0
0
0
0
0
0
0
0
0
0
0
0
0
0
0
0
0
0
0
0
0
0
0
0
0
0
0
0
0
0
0
0
0
0
0
2.14041e-20
7.56962e-20
2.5767e-19
8.44262e-19
2.66555e-18
8.24801e-18
3.10303e-17
3.72019e-16
1.1903e-14
4.15983e-13
1.3465e-11
3.94094e-10
1.02812e-08
2.35376e-07
4.63701e-06
7.66548e-05
0.00102781
0.0106328
0.0783877
0.358318
0.78753
0.997732
0.999606
0.999778
0.999962
0.999978
0.999996
0.999994
0.999991
0.999984
0.999947
0.999736
0.999002
0.99522
0.977281
0.872792
0.506115
0.114607
6.63994e-11
5.57985e-11
4.50778e-11
3.50089e-11
2.61374e-11
1.87589e-11
1.29422e-11
8.58338e-12
5.47206e-12
3.35336e-12
1.97533e-12
1.11846e-12
6.08729e-13
3.18448e-13
1.60125e-13
7.73895e-14
3.59501e-14
1.60513e-14
6.88814e-15
2.84102e-15
1.12622e-15
4.29079e-16
1.57111e-16
5.52424e-17
1.82995e-17
8.53061e-18
0
0
0
0
0
0
0
0
0
0
0
0
0
0
0
0
0
0
0
0
0
0
0
0
0
0
0
0
0
0
0
0
0
0
0
0
2.17655e-20
8.01692e-20
2.84208e-19
9.69691e-19
3.18405e-18
1.00615e-17
3.0601e-17
8.97963e-17
2.6281e-16
1.0743e-15
1.51005e-14
4.31585e-13
1.3037e-11
3.80028e-10
1.05391e-08
2.64476e-07
5.70685e-06
0.000103086
0.00150309
0.0167407
0.129842
0.585012
0.967098
0.993234
0.996292
0.999289
0.999602
0.999915
0.999887
0.999851
0.999775
0.999376
0.997323
0.992048
0.972207
0.925166
0.742387
0.295185
2.79295e-10
2.43647e-10
2.04336e-10
1.64742e-10
1.27683e-10
9.51321e-11
6.81363e-11
4.69117e-11
3.10477e-11
1.97523e-11
1.20792e-11
7.10046e-12
4.01197e-12
2.17893e-12
1.13747e-12
5.70748e-13
2.75262e-13
1.27598e-13
5.68498e-14
2.43444e-14
1.00195e-14
3.96341e-15
1.50681e-15
5.50561e-16
1.93196e-16
6.39639e-17
2.98922e-17
0
0
0
0
0
0
0
0
0
0
0
0
0
0
0
0
0
0
0
0
0
0
0
0
0
0
0
0
0
0
0
0
0
0
0
2.03673e-20
7.81446e-20
2.88558e-19
1.02545e-18
3.50689e-18
1.15409e-17
3.65467e-17
1.1136e-16
3.26512e-16
9.22197e-16
2.55742e-15
9.08415e-15
1.20792e-13
3.93242e-12
1.31063e-10
3.92308e-09
1.02932e-07
2.32014e-06
4.38213e-05
0.000669764
0.00786458
0.0652234
0.327609
0.727764
0.92001
0.956752
0.989927
0.994452
0.998676
0.998366
0.997995
0.997313
0.994102
0.978459
0.948119
0.857863
0.730424
0.459599
0.121693
9.89428e-10
8.61494e-10
7.21104e-10
5.80249e-10
4.48845e-10
3.33763e-10
2.38579e-10
1.63936e-10
1.08282e-10
6.87505e-11
4.1959e-11
2.4615e-11
1.38801e-11
7.52314e-12
3.91935e-12
1.9626e-12
9.44602e-13
4.36976e-13
1.94292e-13
8.30299e-14
3.41029e-14
1.34624e-14
5.10763e-15
1.8624e-15
6.5226e-16
2.1585e-16
1.01132e-16
0
0
0
0
0
0
0
0
0
0
0
0
0
0
0
0
0
0
0
0
0
0
0
0
0
0
0
0
0
0
0
0
0
0
1.75335e-20
7.00867e-20
2.69615e-19
9.98104e-19
3.55559e-18
1.2188e-17
4.01997e-17
1.27575e-16
3.8953e-16
1.14429e-15
3.23402e-15
8.79423e-15
2.30504e-14
5.97117e-14
2.02167e-13
2.38191e-12
7.01214e-11
2.23474e-09
6.29506e-08
1.52147e-06
3.07277e-05
0.000499841
0.00619324
0.0532149
0.263559
0.47317
0.705468
0.9013
0.945644
0.984275
0.981913
0.979302
0.975098
0.957228
0.874298
0.758115
0.516099
0.287854
0.126658
3.73531e-09
3.37694e-09
2.93494e-09
2.45214e-09
1.9695e-09
1.52064e-09
1.12863e-09
8.05241e-10
5.52259e-10
3.6408e-10
2.30718e-10
1.40538e-10
8.22864e-11
4.63104e-11
2.50518e-11
1.30258e-11
6.50989e-12
3.12707e-12
1.44375e-12
6.40667e-13
2.73246e-13
1.12009e-13
4.41287e-14
1.67093e-14
6.08068e-15
2.1256e-15
7.03122e-16
3.30306e-16
0
0
0
0
0
0
0
0
0
0
0
0
0
0
0
0
0
0
0
0
0
0
0
0
0
0
0
0
0
0
0
0
0
1.38821e-20
5.78226e-20
2.31769e-19
8.93943e-19
3.31774e-18
1.18477e-17
4.0707e-17
1.34565e-16
4.27964e-16
1.30942e-15
3.85421e-15
1.09134e-14
2.97264e-14
7.78884e-14
1.96325e-13
4.76331e-13
1.11586e-12
2.5547e-12
6.49423e-12
4.6711e-11
1.23999e-09
3.72534e-08
9.76531e-07
2.14051e-05
0.000377687
0.00506965
0.0470494
0.249294
0.451718
0.682319
0.87026
0.860551
0.850576
0.836297
0.781334
0.53621
0.302936
0.13449
1.34195e-08
1.31047e-08
1.23026e-08
1.11031e-08
9.63306e-09
8.03429e-09
6.44154e-09
4.96462e-09
3.67816e-09
2.6195e-09
1.79327e-09
1.18006e-09
7.46433e-10
4.53838e-10
2.65233e-10
1.48994e-10
8.04483e-11
4.17511e-11
2.08266e-11
9.98529e-12
4.60143e-12
2.03802e-12
8.67569e-13
3.54956e-13
1.39577e-13
5.27499e-14
1.91595e-14
6.68532e-15
2.21062e-15
1.04131e-15
0
0
0
0
0
0
0
0
0
0
0
0
0
0
0
0
0
0
0
0
0
0
0
0
0
0
0
0
0
0
0
0
1.01054e-20
4.38689e-20
1.8325e-19
7.36544e-19
2.8484e-18
1.05983e-17
3.79389e-17
1.30658e-16
4.32885e-16
1.37969e-15
4.23009e-15
1.24757e-14
3.53926e-14
9.6579e-14
2.53493e-13
6.39975e-13
1.55443e-12
3.63865e-12
8.2796e-12
1.83467e-11
3.92472e-11
8.10841e-11
1.75974e-10
9.30491e-10
2.15561e-08
6.0389e-07
1.44516e-05
0.000278493
0.00407498
0.0410195
0.231504
0.384742
0.377111
0.36941
0.358723
0.318782
0.142805
3.99191e-08
4.21124e-08
4.27094e-08
4.16405e-08
3.90285e-08
3.51655e-08
3.04589e-08
2.53612e-08
2.02992e-08
1.56183e-08
1.15514e-08
8.2124e-09
5.61229e-09
3.6867e-09
2.32787e-09
1.41286e-09
8.2424e-10
4.62186e-10
2.49106e-10
1.29048e-10
6.42564e-11
3.07518e-11
1.41453e-11
6.25365e-12
2.65726e-12
1.08519e-12
4.25941e-13
1.60678e-13
5.8253e-14
2.02903e-14
6.70731e-15
3.16827e-15
0
0
0
0
0
0
0
0
0
0
0
0
0
0
0
0
0
0
0
0
0
0
0
0
0
0
0
0
0
0
0
0
3.05968e-20
1.33223e-19
5.58106e-19
2.24941e-18
8.72212e-18
3.25357e-17
1.16753e-16
4.03029e-16
1.33828e-15
4.27456e-15
1.31327e-14
3.88086e-14
1.10306e-13
3.01548e-13
7.92854e-13
2.00497e-12
4.87725e-12
1.14296e-11
2.60141e-11
5.76112e-11
1.23116e-10
2.52996e-10
4.99921e-10
9.49872e-10
1.73539e-09
3.04854e-09
5.1492e-09
8.36244e-09
1.30577e-08
1.96034e-08
2.82958e-08
3.92674e-08
5.23909e-08
6.72027e-08
8.28743e-08
9.82538e-08
1.11987e-07
1.22709e-07
1.29259e-07
1.30894e-07
1.27424e-07
1.19247e-07
1.07276e-07
9.27716e-08
7.71219e-08
6.16291e-08
4.73408e-08
3.4956e-08
2.48108e-08
1.69273e-08
1.11009e-08
6.99754e-09
4.23983e-09
2.46923e-09
1.38223e-09
7.437e-10
3.84604e-10
1.91171e-10
9.1331e-11
4.19371e-11
1.85079e-11
7.85042e-12
3.20036e-12
1.25392e-12
4.72179e-13
1.70883e-13
5.94194e-14
1.9637e-14
9.30223e-15
0
0
0
0
0
0
0
0
0
0
0
0
0
0
0
0
0
0
0
0
0
0
0
0
0
0
0
0
0
0
0
1.96114e-20
8.90269e-20
3.88803e-19
1.6335e-18
6.60194e-18
2.56671e-17
9.59889e-17
3.45295e-16
1.19474e-15
3.97614e-15
1.27274e-14
3.91831e-14
1.16019e-13
3.30387e-13
9.04831e-13
2.38318e-12
6.03655e-12
1.47068e-11
3.45048e-11
7.8559e-11
1.73895e-10
3.71342e-10
7.62488e-10
1.50541e-09
2.85781e-09
5.21627e-09
9.15437e-09
1.54466e-08
2.5059e-08
3.90857e-08
5.86122e-08
8.45023e-08
1.17126e-07
1.56077e-07
1.99949e-07
2.46257e-07
2.91569e-07
3.31875e-07
3.63146e-07
3.81995e-07
3.86278e-07
3.75494e-07
3.50884e-07
3.15192e-07
2.72166e-07
2.2591e-07
1.80251e-07
1.38246e-07
1.0192e-07
7.2226e-08
4.91981e-08
3.22123e-08
2.02726e-08
1.22633e-08
7.1303e-09
3.98485e-09
2.14049e-09
1.10511e-09
5.4839e-10
2.61552e-10
1.19897e-10
5.28242e-11
2.23683e-11
9.10332e-12
3.56068e-12
1.33852e-12
4.83588e-13
1.67876e-13
5.54679e-14
2.63519e-14
0
0
0
0
0
0
0
0
0
0
0
0
0
0
0
0
0
0
0
0
0
0
0
0
0
0
0
0
0
0
1.15477e-20
5.46662e-20
2.4894e-19
1.09046e-18
4.59466e-18
1.86213e-17
7.25891e-17
2.72159e-16
9.8142e-16
3.40374e-15
1.13532e-14
3.64193e-14
1.12354e-13
3.3333e-13
9.51017e-13
2.60927e-12
6.8843e-12
1.74666e-11
4.26189e-11
1.00112e-10
2.28019e-10
5.04535e-10
1.07671e-09
2.20931e-09
4.35865e-09
8.26767e-09
1.50779e-08
2.64376e-08
4.45676e-08
7.22314e-08
1.12548e-07
1.68597e-07
2.42805e-07
3.36167e-07
4.47443e-07
5.72533e-07
7.04272e-07
8.32821e-07
9.46741e-07
1.0346e-06
1.08687e-06
1.09757e-06
1.06547e-06
9.94258e-07
8.91864e-07
7.6902e-07
6.37401e-07
5.07831e-07
3.88914e-07
2.86294e-07
2.02577e-07
1.3778e-07
9.00728e-08
5.65992e-08
3.41847e-08
1.98451e-08
1.10732e-08
5.93862e-09
3.06117e-09
1.51661e-09
7.22179e-10
3.30516e-10
1.45383e-10
6.14619e-11
2.49726e-11
9.75181e-12
3.65987e-12
1.32008e-12
4.57531e-13
1.51145e-13
7.20145e-14
0
0
0
0
0
0
0
0
0
0
0
0
0
0
0
0
0
0
0
0
0
0
0
0
0
0
0
0
0
0
3.08327e-20
1.46439e-19
6.6896e-19
2.93919e-18
1.24202e-17
5.04769e-17
1.97292e-16
7.41601e-16
2.68081e-15
9.31936e-15
3.11547e-14
1.00155e-13
3.09615e-13
9.20378e-13
2.63087e-12
7.23127e-12
1.9112e-11
4.85701e-11
1.18695e-10
2.79157e-10
6.3611e-10
1.40709e-09
3.00115e-09
6.1543e-09
1.21335e-08
2.29989e-08
4.19117e-08
7.34284e-08
1.23677e-07
2.00267e-07
3.11756e-07
4.66556e-07
6.71231e-07
9.28357e-07
1.23432e-06
1.57765e-06
1.93845e-06
2.28959e-06
2.59966e-06
2.83745e-06
2.97707e-06
3.00258e-06
2.911e-06
2.71286e-06
2.43022e-06
2.09265e-06
1.73211e-06
1.37809e-06
1.05391e-06
7.74718e-07
5.47392e-07
3.71761e-07
2.42681e-07
1.52269e-07
9.18305e-08
5.32303e-08
2.96567e-08
1.5881e-08
8.17366e-09
4.04332e-09
1.92237e-09
8.78441e-10
3.85797e-10
1.62844e-10
6.60619e-11
2.57567e-11
9.65131e-12
3.47565e-12
1.20279e-12
3.97253e-13
1.89789e-13
0
0
0
0
0
0
0
0
0
0
0
0
0
0
0
0
0
0
0
0
0
0
0
0
0
0
0
0
0
1.59671e-20
7.91141e-20
3.7699e-19
1.7276e-18
7.61352e-18
3.22662e-17
1.31499e-16
5.15344e-16
1.94209e-15
7.03765e-15
2.45226e-14
8.21639e-14
2.64706e-13
8.19987e-13
2.44235e-12
6.99454e-12
1.926e-11
5.09913e-11
1.298e-10
3.17692e-10
7.4812e-10
1.70561e-09
3.772e-09
8.04145e-09
1.64815e-08
3.24753e-08
6.15175e-08
1.12029e-07
1.9613e-07
3.30092e-07
5.3407e-07
8.30678e-07
1.24203e-06
1.78524e-06
2.46671e-06
3.2764e-06
4.18339e-06
5.13464e-06
6.05813e-06
6.87085e-06
7.4907e-06
7.85006e-06
7.90783e-06
7.65727e-06
7.1272e-06
6.3766e-06
5.48381e-06
4.5331e-06
3.60184e-06
2.75086e-06
2.0194e-06
1.42489e-06
9.6638e-07
6.29962e-07
3.9471e-07
2.37705e-07
1.37591e-07
7.6547e-08
4.0931e-08
2.10358e-08
1.03907e-08
4.93293e-09
2.2508e-09
9.87051e-10
4.16013e-10
1.68514e-10
6.56034e-11
2.45455e-11
8.8261e-12
3.04989e-12
1.0069e-12
4.82018e-13
0
0
0
0
0
0
0
0
0
0
0
0
0
0
0
0
0
0
0
0
0
0
0
0
0
0
0
0
0
3.92381e-20
1.95088e-19
9.32696e-19
4.28775e-18
1.89536e-17
8.05596e-17
3.29232e-16
1.29371e-15
4.88789e-15
1.7756e-14
6.20162e-14
2.08255e-13
6.72374e-13
2.08712e-12
6.22879e-12
1.7872e-11
4.93005e-11
1.30749e-10
3.3337e-10
8.17204e-10
1.92688e-09
4.39556e-09
9.71947e-09
2.07127e-08
4.24331e-08
8.35688e-08
1.58216e-07
2.87953e-07
5.03793e-07
8.47307e-07
1.36989e-06
2.12902e-06
3.18071e-06
4.56788e-06
6.30592e-06
8.36805e-06
1.06743e-05
1.30885e-05
1.54267e-05
1.74778e-05
1.90341e-05
1.99252e-05
2.00492e-05
1.93916e-05
1.8028e-05
1.61101e-05
1.38377e-05
1.14246e-05
9.06625e-06
6.91544e-06
5.07009e-06
3.57283e-06
2.41996e-06
1.57543e-06
9.85787e-07
5.92867e-07
3.42704e-07
1.90399e-07
1.0167e-07
5.21796e-08
2.57385e-08
1.22023e-08
5.5599e-09
2.43479e-09
1.02476e-09
4.14517e-10
1.61147e-10
6.02089e-11
2.16198e-11
7.46056e-12
2.46056e-12
1.1778e-12
0
0
0
0
0
0
0
0
0
0
0
0
0
0
0
0
0
0
0
0
0
0
0
0
0
0
0
0
1.78579e-20
9.26665e-20
4.62324e-19
2.21766e-18
1.02274e-17
4.5347e-17
1.93304e-16
7.92209e-16
3.12133e-15
1.18232e-14
4.30551e-14
1.50731e-13
5.07305e-13
1.64142e-12
5.10562e-12
1.52671e-11
4.38876e-11
1.21283e-10
3.22203e-10
8.22868e-10
2.02025e-09
4.76978e-09
1.08876e-08
2.40731e-08
5.12852e-08
1.05027e-07
2.06755e-07
3.91253e-07
7.11704e-07
1.24446e-06
2.09171e-06
3.37953e-06
5.24861e-06
7.83545e-06
1.12438e-05
1.55093e-05
2.05634e-05
2.62072e-05
3.21048e-05
3.78042e-05
4.27886e-05
4.65515e-05
4.86804e-05
4.89314e-05
4.72751e-05
4.39022e-05
3.91876e-05
3.36214e-05
2.7726e-05
2.19766e-05
1.6743e-05
1.22604e-05
8.62916e-06
5.83751e-06
3.79558e-06
2.37202e-06
1.42477e-06
8.22537e-07
4.56403e-07
2.43401e-07
1.2476e-07
6.14613e-08
2.91007e-08
1.32427e-08
5.79184e-09
2.43458e-09
9.83552e-10
3.81885e-10
1.42504e-10
5.11072e-11
1.76147e-11
5.79446e-12
2.75861e-12
0
0
0
0
0
0
0
0
0
0
0
0
0
0
0
0
0
0
0
0
0
0
0
0
0
0
0
0
4.03843e-20
2.10319e-19
1.05295e-18
5.0676e-18
2.34453e-17
1.04271e-16
4.45787e-16
1.83207e-15
7.23776e-15
2.74862e-14
1.00339e-13
3.52102e-13
1.18771e-12
3.85116e-12
1.20036e-11
3.59644e-11
1.03579e-10
2.86752e-10
7.63096e-10
1.95203e-09
4.79992e-09
1.13476e-08
2.59203e-08
5.73113e-08
1.22068e-07
2.4991e-07
4.91803e-07
9.30292e-07
1.69148e-06
2.95619e-06
4.96609e-06
8.01885e-06
1.24458e-05
1.85673e-05
2.66248e-05
3.66973e-05
4.86175e-05
6.19099e-05
7.57766e-05
8.91492e-05
0.000100811
0.000109572
0.000114471
0.000114947
0.000110943
0.000102921
9.17713e-05
7.86518e-05
6.479e-05
5.12984e-05
3.90386e-05
2.85548e-05
2.0075e-05
1.35651e-05
8.8101e-06
5.49954e-06
3.29959e-06
1.90273e-06
1.05458e-06
5.61777e-07
2.87627e-07
1.41539e-07
6.69419e-08
3.04298e-08
1.32946e-08
5.58244e-09
2.25292e-09
8.73857e-10
3.25765e-10
1.16718e-10
4.01906e-11
1.31411e-11
6.14826e-12
0
0
0
0
0
0
0
0
0
0
0
0
0
0
0
0
0
0
0
0
0
0
0
0
0
0
0
1.8261e-20
1.00782e-19
5.23596e-19
2.25861e-18
1.10651e-17
5.16856e-17
2.30428e-16
9.88049e-16
4.07202e-15
1.61302e-14
6.14135e-14
2.24742e-13
7.90503e-13
2.67251e-12
8.68426e-12
2.71234e-11
8.14246e-11
2.34945e-10
6.51593e-10
1.73695e-09
4.45042e-09
1.09602e-08
2.59464e-08
5.93123e-08
1.31162e-07
2.79335e-07
5.71787e-07
1.12496e-06
2.12729e-06
3.86644e-06
6.75442e-06
1.13411e-05
1.83028e-05
2.83903e-05
4.23269e-05
6.06535e-05
8.35391e-05
0.000110591
0.000140715
0.000172091
0.000202288
0.000228548
0.000248189
0.000259048
0.000259882
0.000250592
0.000232249
0.000206888
0.000177139
0.000145777
0.000115307
8.76641e-05
6.40591e-05
4.49919e-05
3.03726e-05
1.97071e-05
1.22902e-05
7.36692e-06
4.2443e-06
2.35027e-06
1.25089e-06
6.39903e-07
3.14629e-07
1.48687e-07
6.75363e-08
2.94843e-08
1.23718e-08
4.98958e-09
1.93412e-09
7.20596e-10
2.58041e-10
8.88103e-11
2.86798e-11
1.28829e-11
0
0
0
0
0
0
0
0
0
0
0
0
0
0
0
0
0
0
0
0
0
0
0
0
0
0
0
0.00278649
0.0089702
0.0142432
0.0162993
0.0148588
0.00976496
0.00317741
3.15973e-05
1.58772e-07
5.33063e-10
1.47561e-12
4.92117e-13
1.7242e-12
5.83797e-12
1.89978e-11
5.94171e-11
1.78604e-10
5.15993e-10
1.43275e-09
3.82362e-09
9.80747e-09
2.4178e-08
5.72892e-08
1.31012e-07
2.89651e-07
6.16595e-07