# vtk DataFile Version 2.0
Structured output generated by Nextsim
ASCII
DATASET STRUCTURED_POINTS
DIMENSIONS 3 3 1
ORIGIN 0 0 0
SPACING 0.5 0.5 0.5
POINT_DATA 9
SCALARS interpolate DOUBLE 1
LOOKUP_TABLE default
2.05107e-09
4.31949e-08
8.43388e-08
1.04219e-09
4.55781e-07
9.10519e-07
3.33009e-11
8.68367e-07
1.7367e-06
CELL_DATA 4
SCALARS average DOUBLE 1
LOOKUP_TABLE default
2.05107e-09
8.43388e-08
3.33009e-11
1.7367e-06
