# vtk DataFile Version 2.0
Structured output generated by Nextsim
ASCII
DATASET STRUCTURED_POINTS
DIMENSIONS 3 3 1
ORIGIN 0 0 0
SPACING 0.5 0.5 0.5
POINT_DATA 9
SCALARS interpolate DOUBLE 1
LOOKUP_TABLE default
4.70813e-09
1.07741e-07
2.10774e-07
2.38917e-09
1.2354e-06
2.46841e-06
7.02178e-11
2.36306e-06
4.72605e-06
CELL_DATA 4
SCALARS average DOUBLE 1
LOOKUP_TABLE default
4.70813e-09
2.10774e-07
7.02178e-11
4.72605e-06
