# vtk DataFile Version 2.0
Structured output generated by Nextsim
ASCII
DATASET STRUCTURED_POINTS
DIMENSIONS 101 101 1
ORIGIN 0 0 0
SPACING 0.01 0.01 0.01
POINT_DATA 10201
SCALARS interpolate DOUBLE 1
LOOKUP_TABLE default
0
0
0
0
0
0
0
0
0
0
0
0
0
0
0
0
0
0
0
0
0
0
0
0
0
0
0
0
0
0
0
0
0
0
0
0
0
0
0
0
0
0
0
0
0
0
0
0
0
0
0
0
0
0
0
0
0
0
0
0
0
0
0
0
0
0
0
0
0
0
0
0
0
0
0
0
0
0
0
0
0
0
0
0
0
0
0
0
0
0
0
0
0
0
0
0
0
0
0
0
0
0
0
0
0
0
0
0
0
0
0
0
0
0
0
0
0
0
0
0
0
0
0
0
0
0
0
0
0
0
0
0
0
0
0
0
0
0
0
0
0
0
0
0
0
0
0
0
0
0
0
0
0
0
0
0
0
0
0
0
0
0
0
0
0
0
0
0
0
0
0
0
0
0
0
0
0
0
0
0
0
0
0
0
0
0
0
0
0
0
0
0
0
0
0
0
0
0
0
0
0
0
0
0
0
0
0
0
0
0
0
0
0
0
0
0
0
0
0
0
0
0
0
0
0
0
0
0
0
0
0
0
0
0
0
0
0
0
0
0
0
0
0
0
0
0
0
0
0
0
0
0
0
0
0
0
0
0
0
0
0
0
0
0
0
0
0
0
0
0
0
0
0
0
0
0
0
0
0
0
0
0
0
0
0
0
0
0
0
0
0
0
0
0
0
0
0
0
0
0
0
0
0
0
0
0
0
0
0
0
0
0
0
0
0
0
0
0
0
0
0
0
0
0
0
0
0
0
0
0
0
0
0
0
0
0
0
0
0
0
0
0
0
0
0
0
0
0
0
0
0
0
0
0
0
0
0
0
0
0
0
0
0
0
0
0
0
0
0
0
0
0
0
0
0
0
0
0
0
0
0
0
0
0
0
0
0
0
0
0
0
0
0
0
0
0
0
0
0
0
0
0
0
0
0
0
0
0
0
0
0
0
0
0
0
0
0
0
0
0
0
0
0
0
0
0
0
0
0
0
0
0
0
0
0
0
0
0
0
0
0
0
0
0
0
0
0
0
0
0
0
0
0
0
0
0
0
0
0
0
0
0
0
0
0
0
0
0
0
0
0
0
0
0
0
0
0
0
0
0
0
0
0
0
0
0
0
0
0
0
0
0
0
0
0
0
0
0
0
0
0
0
0
0
0
0
0
0
0
0
0
0
0
0
0
0
0
0
0
0
0
0
0
0
0
0
0
0
0
0
0
0
0
0
0
0
0
0
0
0
0
0
0
0
0
0
0
0
0
0
0
0
0
0
0
0
0
0
0
0
0
0
0
0
0
0
0
0
0
0
0
0
0
0
0
0
0
0
0
0
0
0
0
0
0
0
0
0
0
0
0
0
0
0
0
0
0
0
0
0
0
0
0
0
0
0
0
0
0
0
0
0
0
0
0
0
0
0
0
0
0
0
0
0
0
0
0
0
0
0
0
0
0
0
0
0
0
0
0
0
0
0
0
0
0
0
0
0
0
0
0
0
0
0
0
0
0
0
0
0
0
0
0
0
0
0
0
0
0
0
0
0
0
0
0
0
0
0
0
0
0
0
0
0
0
0
0
0
0
0
0
0
0
0
0
0
0
0
0
0
0
0
0
0
0
0
0
0
0
0
0
0
0
0
0
0
0
0
0
0
0
0
0
0
0
0
0
0
0
0
0
0
0
0
0
0
0
0
0
0
0
0
0
0
0
0
0
0
0
0
0
0
0
0
0
0
0
0
0
0
0
0
0
0
0
0
0
0
0
0
0
0
0
0
0
0
0
0
0
0
0
0
0
0
0
0
0
0
0
0
0
0
0
0
0
0
0
0
0
0
0
0
0
0
0
0
0
0
0
0
0
0
0
0
0
0
0
0
0
0
0
0
0
0
0
0
0
0
0
0
0
0
0
0
0
0
0
0
0
0
0
0
0
0
0
0
0
0
0
0
0
0
0
0
0
0
0
0
0
0
0
0
0
0
0
0
0
0
0
0
0
0
0
1.14933e-20
0
-1.85043e-20
-1.72755e-20
0
0
0
0
0
0
0
0
0
0
0
0
0
0
0
0
0
0
0
0
0
0
0
0
0
0
0
0
0
0
0
0
0
0
0
0
0
0
0
0
0
0
0
0
0
0
0
0
0
0
0
0
0
0
0
0
0
0
0
0
0
0
0
0
0
0
0
0
0
0
0
0
0
0
0
0
0
0
0
0
0
0
0
0
0
0
0
0
0
0
0
0
0
0
-3.64551e-20
-2.33043e-20
3.92129e-19
1.008e-18
5.37045e-19
-1.60184e-18
-1.51304e-18
1.32433e-19
1.26377e-19
0
0
0
0
0
0
0
0
0
0
0
0
0
0
0
0
0
0
0
0
0
0
0
0
0
0
0
0
0
0
0
0
0
0
0
0
0
0
0
0
0
0
0
0
0
0
0
0
0
0
0
0
0
0
0
0
0
0
0
0
0
0
0
0
0
0
0
0
0
0
0
0
0
0
0
0
0
0
0
0
0
0
0
0
0
0
0
0
0
0
1.10306e-19
-1.6922e-19
-4.51898e-18
-3.28989e-18
2.84412e-17
6.6923e-17
3.39631e-17
-1.10137e-16
-1.05423e-16
5.6404e-18
5.82223e-18
-5.55923e-19
2.26925e-20
0
0
0
0
0
0
0
0
0
0
0
0
0
0
0
0
0
0
0
0
0
0
0
0
0
0
0
0
0
0
0
0
0
0
0
0
0
0
0
0
0
0
0
0
0
0
0
0
0
0
0
0
0
0
0
0
0
0
0
0
0
0
0
0
0
0
0
0
0
0
0
0
0
0
0
0
0
0
0
0
0
0
0
0
0
0
4.46523e-20
7.87385e-19
1.02349e-17
-2.04814e-17
-4.74874e-16
-3.86208e-16
1.65568e-15
3.48471e-15
1.64733e-15
-6.22937e-15
-6.09593e-15
2.423e-16
3.08061e-16
-4.03055e-17
9.3432e-19
4.2879e-20
0
0
0
0
0
0
0
0
0
0
0
0
0
0
0
0
0
0
0
0
0
0
0
0
0
0
0
0
0
0
0
0
0
0
0
0
0
0
0
0
0
0
0
0
0
0
0
0
0
0
0
0
0
0
0
0
0
0
0
0
0
0
0
0
0
0
0
0
0
0
0
0
0
0
0
0
0
0
0
0
0
0
0
0
2.17773e-19
6.02738e-18
7.0809e-17
8.08259e-16
-2.03222e-15
-4.07892e-14
-3.5193e-14
8.62204e-14
1.52943e-13
6.37017e-14
-2.96759e-13
-2.98666e-13
1.37544e-14
1.89885e-14
-2.50167e-15
1.56597e-17
2.40723e-18
-4.1873e-20
0
0
0
0
0
0
0
0
0
0
0
0
0
0
0
0
0
0
0
0
0
0
0
0
0
0
0
0
0
0
0
0
0
0
0
0
0
0
0
0
0
0
0
0
0
0
0
0
0
0
0
0
0
0
0
0
0
0
0
0
0
0
0
0
0
0
0
0
0
0
0
0
0
0
0
0
0
0
0
0
0
3.59962e-20
9.11123e-19
2.97974e-17
5.21224e-16
7.23324e-15
4.93618e-14
-1.55871e-13
-2.82044e-12
-2.45521e-12
4.648e-12
6.5524e-12
2.17641e-12
-1.1914e-11
-1.2494e-11
7.64757e-13
1.11319e-12
-1.26813e-13
-4.88213e-16
1.21784e-16
-2.11812e-18
3.62737e-20
0
0
0
0
0
0
0
0
0
0
0
0
0
0
0
0
0
0
0
0
0
0
0
0
0
0
0
0
0
0
0
0
0
0
0
0
0
0
0
0
0
0
0
0
0
0
0
0
0
0
0
0
0
0
0
0
0
0
0
0
0
0
0
0
0
0
0
0
0
0
0
0
0
0
0
0
0
0
0
1.1173e-19
3.15388e-18
1.39725e-16
2.46253e-15
5.12192e-14
4.99223e-13
3.07558e-12
-9.28792e-12
-1.5863e-10
-1.30606e-10
2.70894e-10
3.25296e-10
8.97898e-11
-3.9979e-10
-4.37937e-10
4.95227e-11
6.32565e-11
-5.16478e-12
-2.30754e-14
5.95911e-15
-7.84577e-17
1.08563e-18
0
0
0
0
0
0
0
0
0
0
0
0
0
0
0
0
0
0
0
0
0
0
0
0
0
0
0
0
0
0
0
0
0
0
0
0
0
0
0
0
0
0
0
0
0
0
0
0
0
0
0
0
0
0
0
0
0
0
0
0
0
0
0
0
0
0
0
0
0
0
0
0
0
0
0
0
0
0
2.62453e-19
9.12156e-18
4.26993e-16
8.58964e-15
2.60362e-13
3.12308e-12
3.87291e-11
1.70275e-10
-3.55721e-10
-6.63828e-09
-4.71263e-09
1.54416e-08
1.8574e-08
6.31996e-09
-9.64585e-09
-1.1933e-08
2.32156e-09
2.68904e-09
-1.6593e-10
1.96662e-12
2.86911e-13
-2.11341e-15
-1.83248e-18
0
0
0
0
0
0
0
0
0
0
0
0
0
0
0
0
0
0
0
0
0
0
0
0
0
0
0
0
0
0
0
0
0
0
0
0
0
0
0
0
0
0
0
0
0
0
0
0
0
0
0
0
0
0
0
0
0
0
0
0
0
0
0
0
0
0
0
0
0
0
0
0
0
0
0
0
0
5.26103e-19
2.19924e-17
9.34077e-16
2.51271e-14
8.52843e-13
1.22846e-11
2.4637e-10
2.13792e-09
1.08246e-08
-5.36539e-09
-2.08983e-07
-8.90061e-08
7.65317e-07
9.71988e-07
4.15781e-07
-1.81798e-07
-2.85381e-07
1.024e-07
9.87008e-08
-3.63155e-09
2.44422e-10
1.32751e-11
-4.09503e-14
-2.40625e-15
0
0
0
0
0
0
0
0
0
0
0
0
0
0
0
0
0
0
0
0
0
0
0
0
0
0
0
0
0
0
0
0
0
0
0
0
0
0
0
0
0
0
0
0
0
0
0
0
0
0
0
0
0
0
0
0
0
0
0
0
0
0
0
0
0
0
0
0
0
0
0
0
0
0
0
1.49801e-20
8.407e-19
3.8656e-17
1.56973e-15
5.19006e-14
1.6731e-12
3.52016e-11
8.94674e-10
9.52215e-09
1.19649e-07
5.79535e-07
4.6544e-07
-4.09339e-06
1.70933e-06
3.00582e-05
3.96331e-05
1.95505e-05
2.38777e-06
-1.41512e-06
3.47391e-06
3.05572e-06
-3.11954e-08
1.44816e-08
5.66478e-10
-5.25573e-13
-1.54224e-13
0
0
0
0
0
0
0
0
0
0
0
0
0
0
0
0
0
0
0
0
0
0
0
0
0
0
0
0
0
0
0
0
0
0
0
0
0
0
0
0
0
0
0
0
0
0
0
0
0
0
0
0
0
0
0
0
0
0
0
0
0
0
0
0
0
0
0
0
0
0
0
0
0
0
1.6914e-20
9.24821e-19
4.44289e-17
1.87584e-15
7.15418e-14
2.29667e-12
6.1086e-11
1.56409e-09
2.47514e-08
5.09216e-07
4.12627e-06
2.71314e-05
3.67886e-05
-5.024e-06
0.000181253
0.000748905
0.00110875
0.000747645
0.000163562
7.48554e-06
9.67751e-05
6.49998e-05
1.02489e-06
6.73391e-07
2.17502e-08
-8.66177e-13
-6.16035e-12
0
0
0
0
0
0
0
0
0
0
0
0
0
0
0
0
0
0
0
0
0
0
0
0
0
0
0
0
0
0
0
0
0
0
0
0
0
0
0
0
0
0
0
0
0
0
0
0
0
0
0
0
0
0
0
0
0
0
0
0
0
0
0
0
0
0
0
0
0
0
0
0
0
1.66138e-20
8.5221e-19
3.62049e-17
1.3943e-15
5.48693e-14
1.91397e-12
6.23515e-11
1.63507e-09
4.52394e-08
7.97062e-07
1.23405e-05
0.000182025
0.000725376
0.00137736
0.00166875
0.00694624
0.0206053
0.0293932
0.0195067
0.00661459
0.00263969
0.00183113
0.00123775
6.73787e-05
1.7461e-05
7.13404e-07
1.44125e-10
-1.30989e-10
0
0
0
0
0
0
0
0
0
0
0
0
0
0
0
0
0
0
0
0
0
0
0
0
0
0
0
0
0
0
0
0
0
0
0
0
0
0
0
0
0
0
0
0
0
0
0
0
0
0
0
0
0
0
0
0
0
0
0
0
0
0
0
0
0
0
0
0
0
0
0
0
0
2.47351e-19
9.33334e-18
2.29575e-16
4.14709e-15
-9.88214e-15
1.91499e-12
2.15036e-10
1.79822e-08
4.6491e-07
1.47381e-05
0.000191626
0.00268295
0.0377513
0.159389
0.318226
0.414517
0.484463
0.527757
0.472849
0.405579
0.302302
0.131679
0.0271225
0.0016667
0.000399772
1.90304e-05
2.76848e-08
-6.89003e-10
0
0
0
0
0
0
0
0
0
0
0
0
0
0
0
0
0
0
0
0
0
0
0
0
0
0
0
0
0
0
0
0
0
0
0
0
0
0
0
0
0
0
0
0
0
0
0
0
0
0
0
0
0
0
0
0
0
0
0
0
0
0
0
0
0
0
0
0
0
0
0
0
-5.95962e-19
-3.13121e-17
-1.43996e-15
-5.78248e-14
-2.04867e-12
-5.86146e-11
-1.31979e-09
-1.74052e-08
-6.67676e-08
1.31785e-05
0.000148866
0.00633068
0.117429
0.385606
0.647707
0.816556
0.907751
0.964577
0.999434
0.954066
0.899035
0.798353
0.606518
0.335413
0.0888894
0.00641207
0.000417422
1.22056e-06
6.98491e-08
0
0
0
0
0
0
0
0
0
0
0
0
0
0
0
0
0
0
0
0
0
0
0
0
0
0
0
0
0
0
0
0
0
0
0
0
0
0
0
0
0
0
0
0
0
0
0
0
0
0
0
0
0
0
0
0
0
0
0
0
0
0
0
0
0
0
0
0
0
0
0
5.29249e-19
2.8505e-17
1.29566e-15
5.11942e-14
1.80421e-12
5.95769e-11
1.95035e-09
6.67367e-08
1.64391e-06
4.56116e-05
0.000688583
0.0138813
0.209975
0.555633
0.848553
0.989658
1
1
1
1
0.999995
0.999909
0.998679
0.976477
0.807411
0.49437
0.171026
0.00640637
5.51918e-05
4.91058e-06
0
0
0
0
0
0
0
0
0
0
0
0
0
0
0
0
0
0
0
0
0
0
0
0
0
0
0
0
0
0
0
0
0
0
0
0
0
0
0
0
0
0
0
0
0
0
0
0
0
0
0
0
0
0
0
0
0
0
0
0
0
0
0
0
0
0
0
0
0
0
4.68786e-19
2.33301e-17
8.93139e-16
2.94169e-14
9.87238e-13
3.82596e-11
1.55017e-09
5.44791e-08
1.83487e-06
4.10235e-05
0.000723299
0.0116933
0.213774
0.643475
0.940709
1
1
1
1
1
1
1
1
0.999997
0.999898
0.997853
0.905141
0.572743
0.166897
0.00142103
7.8118e-05
6.43188e-20
5.01577e-20
3.74457e-20
2.68725e-20
1.85375e-20
1.22922e-20
0
0
0
0
0
0
0
0
0
0
0
0
0
0
0
0
0
0
0
0
0
0
0
0
0
0
0
0
0
0
0
0
0
0
0
0
0
0
0
0
0
0
0
0
0
0
0
0
0
0
0
0
0
0
0
0
0
0
0
0
0
0
0
0
2.38233e-19
1.42212e-17
4.57051e-16
1.8663e-14
1.48217e-12
1.08661e-10
6.54336e-09
2.74621e-07
8.33425e-06
0.000211324
0.00339335
0.121976
0.558436
0.93965
1
1
1
1
1
1
1
1
1
1
0.999996
0.999879
0.997504
0.899927
0.482481
0.0813282
0.00115284
4.04038e-19
3.13875e-19
2.34306e-19
1.68132e-19
1.15974e-19
7.6896e-20
4.90098e-20
3.00257e-20
1.7682e-20
1.00091e-20
0
0
0
0
0
0
0
0
0
0
0
0
0
0
0
0
0
0
0
0
0
0
0
0
0
0
0
0
0
0
0
0
0
0
0
0
0
0
0
0
0
0
0
0
0
0
0
0
0
0
0
0
0
0
0
0
0
0
4.90022e-20
2.37003e-18
1.00153e-16
4.14377e-15
1.75675e-13
7.24978e-12
2.85543e-10
9.76324e-09
2.83982e-07
7.016e-06
0.000130751
0.00200337
0.0421304
0.386812
0.846561
1
1
1
1
1
1
1
1
1
1
1
0.999998
0.999966
0.999331
0.99041
0.791778
0.319848
0.0191161
2.3908e-18
1.8883e-18
1.4095e-18
1.01135e-18
6.97555e-19
4.62482e-19
2.94746e-19
1.80565e-19
1.06329e-19
6.01859e-20
3.27464e-20
1.71259e-20
0
0
0
0
0
0
0
0
0
0
0
0
0
0
0
0
0
0
0
0
0
0
0
0
0
0
0
0
0
0
0
0
0
0
0
0
0
0
0
0
0
0
0
0
0
0
0
0
0
0
0
0
0
0
0
0
5.01486e-20
2.40349e-18
9.91944e-17
3.90762e-15
1.5701e-13
6.38927e-12
2.64704e-10
1.01126e-08
3.3136e-07
9.45326e-06
0.000198699
0.00348662
0.165393
0.650249
0.988153
1
1
1
1
1
1
1
1
1
1
1
1
0.999994
0.999887
0.99821
0.967963
0.576692
0.107046
1.40564e-17
1.09211e-17
8.15138e-18
5.84845e-18
4.0336e-18
2.67415e-18
1.70418e-18
1.04396e-18
6.14726e-19
3.47945e-19
1.89307e-19
9.90024e-20
4.97676e-20
2.40472e-20
1.11686e-20
0
0
0
0
0
0
0
0
0
0
0
0
0
0
0
0
0
0
0
0
0
0
0
0
0
0
0
0
0
0
0
0
0
0
0
0
0
0
0
0
0
0
0
0
0
0
0
0
0
0
0
0
0
-3.44602e-19
-2.52958e-17
-1.53672e-15
-7.83844e-14
-3.35957e-12
-1.19989e-10
-3.51931e-09
-8.15402e-08
-1.39812e-06
-1.4261e-05
2.04374e-05
0.00408196
0.329264
0.825216
1
1
1
1
1
1
1
1
1
1
1
1
1
0.999999
0.99999
0.999839
0.996194
0.745819
0.249474
7.79851e-17
6.07199e-17
4.53181e-17
3.25131e-17
2.24228e-17
1.48649e-17
9.4727e-18
5.8026e-18
3.4167e-18
1.93385e-18
1.05213e-18
5.50224e-19
2.76589e-19
1.33644e-19
6.20704e-20
2.77097e-20
1.18903e-20
0
0
0
0
0
0
0
0
0
0
0
0
0
0
0
0
0
0
0
0
0
0
0
0
0
0
0
0
0
0
0
0
0
0
0
0
0
0
0
0
0
0
0
0
0
0
0
0
0
0
0
-3.54759e-19
-2.5536e-17
-1.52661e-15
-7.69736e-14
-3.27015e-12
-1.15422e-10
-3.306e-09
-7.26737e-08
-1.00614e-06
-2.00839e-06
0.00035524
0.0107769
0.425497
0.915077
1
1
1
1
1
1
1
1
1
1
1
1
1
0.999999
0.999984
0.999734
0.99616
0.843538
0.347127
4.17789e-16
3.24531e-16
2.42201e-16
1.73757e-16
1.19827e-16
7.94346e-17
5.06181e-17
3.10057e-17
1.82563e-17
1.03328e-17
5.62153e-18
2.93981e-18
1.47778e-18
7.14043e-19
3.31634e-19
1.48051e-19
6.35296e-20
2.62032e-20
1.03882e-20
0
0
0
0
0
0
0
0
0
0
0
0
0
0
0
0
0
0
0
0
0
0
0
0
0
0
0
0
0
0
0
0
0
0
0
0
0
0
0
0
0
0
0
0
0
0
0
0
0
2.50538e-19
2.09474e-17
1.44635e-15
8.30094e-14
3.97647e-12
1.58929e-10
5.31475e-09
1.48327e-07
3.5737e-06
7.44924e-05
0.00140574
0.028781
0.491707
0.964261
1
1
1
1
1
1
1
1
1
1
1
1
1
1
0.999993
0.999841
0.996728
0.914082
0.417202
2.14788e-15
1.66737e-15
1.24433e-15
8.92656e-16
6.15574e-16
4.08057e-16
2.60018e-16
1.59267e-16
9.37751e-17
5.30743e-17
2.88744e-17
1.50999e-17
7.59033e-18
3.66753e-18
1.70337e-18
7.60438e-19
3.26314e-19
1.34592e-19
5.33601e-20
2.03339e-20
0
0
0
0
0
0
0
0
0
0
0
0
0
0
0
0
0
0
0
0
0
0
0
0
0
0
0
0
0
0
0
0
0
0
0
0
0
0
0
0
0
0
0
0
0
0
0
0
3.77232e-19
2.81014e-17
1.76703e-15
9.40936e-14
4.3084e-12
1.69769e-10
5.76676e-09
1.71504e-07
4.43276e-06
0.000101284
0.0019034
0.0397929
0.538035
1.00005
1
1
1
1
1
1
1
1
1
1
1
1
1
1
0.999996
0.999931
0.997953
0.959287
0.461269
1.06077e-14
8.23481e-15
6.14526e-15
4.40835e-15
3.0399e-15
2.01505e-15
1.28398e-15
7.86449e-16
4.63044e-16
2.62066e-16
1.42572e-16
7.45573e-17
3.74779e-17
1.81087e-17
8.41053e-18
3.75475e-18
1.61123e-18
6.64586e-19
2.63485e-19
1.00409e-19
3.67786e-20
1.2948e-20
0
0
0
0
0
0
0
0
0
0
0
0
0
0
0
0
0
0
0
0
0
0
0
0
0
0
0
0
0
0
0
0
0
0
0
0
0
0
0
0
0
0
0
0
0
1.85572e-20
1.61227e-19
7.26192e-18
3.4704e-16
1.32646e-14
4.49414e-13
1.65285e-11
7.30458e-10
3.66818e-08
1.53441e-06
5.02893e-05
0.00119361
0.0258012
0.485146
0.960489
1
1
1
1
1
1
1
1
1
1
1
1
1
1
0.999994
0.999849
0.997253
0.905198
0.407801
5.03607e-14
3.90944e-14
2.91735e-14
2.09272e-14
1.44305e-14
9.56533e-15
6.09483e-15
3.73306e-15
2.19791e-15
1.24392e-15
6.76723e-16
3.53885e-16
1.77888e-16
8.59522e-17
3.99204e-17
1.78219e-17
7.6478e-18
3.15454e-18
1.25069e-18
4.76624e-19
1.74587e-19
6.14662e-20
2.07691e-20
0
0
0
0
0
0
0
0
0
0
0
0
0
0
0
0
0
0
0
0
0
0
0
0
0
0
0
0
0
0
0
0
0
0
0
0
0
0
0
0
0
0
0
2.56046e-20
7.90164e-20
2.17055e-19
-1.00694e-18
-1.30567e-16
-8.935e-15
-5.07947e-13
-2.37219e-11
-8.92473e-10
-2.53206e-08
-4.41595e-07
-1.55575e-06
0.00023363
0.00797353
0.414674
0.906928
0.999992
1
1
1
1
1
1
1
1
1
1
1
1
1
0.999991
0.999826
0.997143
0.837321
0.340012
2.29826e-13
1.78406e-13
1.33129e-13
9.5496e-14
6.58486e-14
4.3647e-14
2.78105e-14
1.70335e-14
1.00287e-14
5.67571e-15
3.08769e-15
1.61467e-15
8.11642e-16
3.92171e-16
1.82144e-16
8.13163e-17
3.4895e-17
1.43935e-17
5.70676e-18
2.17483e-18
7.96657e-19
2.80485e-19
9.47815e-20
3.25508e-20
1.84305e-20
0
0
0
0
0
0
0
0
0
0
0
0
0
0
0
0
0
0
0
0
0
0
0
0
0
0
0
0
0
0
0
0
0
0
0
0
0
0
0
1.04383e-20
3.49377e-20
1.12402e-19
3.47437e-19
1.01368e-18
1.0661e-18
-1.42039e-16
-9.97965e-15
-5.581e-13
-2.58671e-11
-9.82898e-10
-2.9533e-08
-6.59518e-07
-9.22617e-06
-1.42455e-05
0.00254541
0.312303
0.809407
0.999654
1
1
1
1
1
1
1
1
1
1
1
1
1
0.999992
0.999784
0.995689
0.734363
0.238466
1.00818e-12
7.82596e-13
5.8397e-13
4.18884e-13
2.88833e-13
1.91446e-13
1.21981e-13
7.47109e-14
4.39862e-14
2.48937e-14
1.35425e-14
7.08185e-15
3.55981e-15
1.72004e-15
7.98872e-16
3.5665e-16
1.53049e-16
6.31308e-17
2.50305e-17
9.53922e-18
3.49437e-18
1.23033e-18
4.15783e-19
1.42137e-19
7.95124e-20
0
0
0
0
0
0
0
0
0
0
0
0
0
0
0
0
0
0
0
0
0
0
0
0
0
0
0
0
0
0
0
0
0
0
0
0
0
0
1.26471e-20
4.40396e-20
1.47405e-19
4.74244e-19
1.46659e-18
4.35996e-18
1.24961e-17
3.68021e-17
2.23138e-16
6.31356e-15
3.07425e-13
1.8568e-11
1.22667e-09
6.61474e-08
2.82555e-06
8.8778e-05
0.00206747
0.143202
0.624188
0.982961
0.999993
1
1
1
1
1
1
1
1
1
1
1
0.999998
0.999943
0.999042
0.957471
0.544316
0.0859419
4.25111e-12
3.29985e-12
2.46229e-12
1.76618e-12
1.21781e-12
8.07186e-13
5.14297e-13
3.14991e-13
1.8545e-13
1.04953e-13
5.70957e-14
2.98571e-14
1.50081e-14
7.25167e-15
3.36805e-15
1.50365e-15
6.45265e-16
2.66166e-16
1.05532e-16
4.02195e-17
1.47333e-17
5.18756e-18
1.75325e-18
5.9682e-19
3.30076e-19
0
0
0
0
0
0
0
0
0
0
0
0
0
0
0
0
0
0
0
0
0
0
0
0
0
0
0
0
0
0
0
0
0
0
0
0
0
1.41559e-20
5.12841e-20
1.78584e-19
5.97751e-19
1.92316e-18
5.94741e-18
1.76796e-17
5.05611e-17
1.41945e-16
5.44645e-16
9.8865e-15
4.4954e-13
2.28855e-11
1.19338e-09
5.2187e-08
1.89413e-06
5.02016e-05
0.00108545
0.0300131
0.352252
0.822847
0.999562
0.999989
0.999998
0.999999
1
1
1
1
1
1
1
0.999996
0.999965
0.999637
0.990908
0.76093
0.280108
0.0104169
1.72303e-11
1.33745e-11
9.97963e-12
7.15819e-12
4.93563e-12
3.27138e-12
2.08433e-12
1.27657e-12
7.51572e-13
4.2534e-13
2.31388e-13
1.21e-13
6.08222e-14
2.93882e-14
1.36494e-14
6.09374e-15
2.61505e-15
1.07869e-15
4.27697e-16
1.63002e-16
5.97122e-17
2.1025e-17
7.10644e-18
2.40965e-18
1.31841e-18
0
0
0
0
0
0
0
0
0
0
0
0
0
0
0
0
0
0
0
0
0
0
0
0
0
0
0
0
0
0
0
0
0
0
0
0
1.46376e-20
5.51711e-20
1.99878e-19
6.9604e-19
2.3298e-18
7.49581e-18
2.31813e-17
6.89088e-17
1.96895e-16
5.40755e-16
1.42549e-15
3.43129e-15
-3.86372e-15
-6.62386e-13
-2.91401e-11
-9.22667e-10
-1.45736e-08
3.12755e-07
3.42971e-05
0.00122399
0.095361
0.514783
0.920108
0.999407
0.999888
0.999976
0.999997
0.999996
0.999997
0.999999
0.999997
0.999993
0.999995
0.999912
0.999459
0.995591
0.874962
0.437218
0.0583018
8.31349e-11
6.71285e-11
5.21057e-11
3.88791e-11
2.78869e-11
1.9228e-11
1.27443e-11
8.11984e-12
4.97306e-12
2.92782e-12
1.65694e-12
9.01387e-13
4.7136e-13
2.36935e-13
1.14483e-13
5.3172e-14
2.37386e-14
1.01871e-14
4.20217e-15
1.66616e-15
6.35004e-16
2.32624e-16
8.19096e-17
2.76878e-17
9.35463e-18
5.0666e-18
0
0
0
0
0
0
0
0
0
0
0
0
0
0
0
0
0
0
0
0
0
0
0
0
0
0
0
0
0
0
0
0
0
0
0
1.39826e-20
5.48312e-20
2.06671e-19
7.4876e-19
2.60747e-18
8.7279e-18
2.80813e-17
8.68442e-17
2.58157e-16
7.37646e-16
2.02598e-15
5.34868e-15
1.35741e-14
3.3127e-14
7.70747e-14
2.18099e-13
1.6156e-11
1.76048e-09
1.29433e-07
5.35256e-06
0.000182298
0.00452672
0.179218
0.593698
0.915948
0.996397
0.999289
0.999947
0.999884
0.999921
0.999956
0.999901
0.999861
0.999819
0.998598
0.989363
0.875583
0.52187
0.136929
3.7065e-10
3.11334e-10
2.51388e-10
1.95127e-10
1.45594e-10
1.04429e-10
7.20031e-11
4.77233e-11
3.04058e-11
1.86222e-11
1.09635e-11
6.20453e-12
3.37529e-12
1.76503e-12
8.87213e-13
4.28685e-13
1.99105e-13
8.88903e-14
3.81464e-14
1.57354e-14
6.23913e-15
2.37788e-15
8.71107e-16
3.06732e-16
1.03694e-16
3.49181e-17
1.87323e-17
0
0
0
0
0
0
0
0
0
0
0
0
0
0
0
0
0
0
0
0
0
0
0
0
0
0
0
0
0
0
0
0
0
0
1.23392e-20
5.0342e-20
1.97416e-19
7.44121e-19
2.69597e-18
9.38859e-18
3.14267e-17
1.01114e-16
3.1271e-16
9.29587e-16
2.65619e-15
7.29541e-15
1.92604e-14
4.88772e-14
1.19228e-13
2.7964e-13
6.35277e-13
1.70584e-12
2.5661e-11
1.53373e-09
8.82247e-08
4.18466e-06
0.000152506
0.00399613
0.17384
0.499164
0.805667
0.975825
0.998315
0.997611
0.998052
0.998762
0.997742
0.997198
0.996149
0.959523
0.764712
0.441161
0.138615
1.52698e-09
1.33424e-09
1.12071e-09
9.04911e-10
7.02382e-10
5.24077e-10
3.75897e-10
2.59176e-10
1.71779e-10
1.09444e-10
6.70292e-11
3.94621e-11
2.23326e-11
1.2149e-11
6.35299e-12
3.19341e-12
1.543e-12
7.16653e-13
3.1995e-13
1.37304e-13
5.66383e-14
2.24574e-14
8.55911e-15
3.13556e-15
1.1041e-15
3.73285e-16
1.25318e-16
6.66274e-17
0
0
0
0
0
0
0
0
0
0
0
0
0
0
0
0
0
0
0
0
0
0
0
0
0
0
0
0
0
0
0
0
0
1.00592e-20
4.26987e-20
1.74209e-19
6.83179e-19
2.57518e-18
9.33015e-18
3.24924e-17
1.08764e-16
3.4995e-16
1.08229e-15
3.21733e-15
9.19326e-15
2.52502e-14
6.66629e-14
1.69172e-13
4.1267e-13
9.67631e-13
2.18108e-12
4.72589e-12
9.84482e-12
2.00267e-11
4.04167e-11
1.81929e-09
1.8518e-07
1.473e-05
0.000701131
0.0832051
0.32864
0.589137
0.76147
0.857376
0.924423
0.969806
0.914982
0.843532
0.739557
0.552287
0.287065
0.0614803
5.79916e-09
5.28361e-09
4.61665e-09
3.87775e-09
3.13104e-09
2.43026e-09
1.8133e-09
1.30059e-09
8.96733e-10
5.94341e-10
3.78666e-10
2.31913e-10
1.36533e-10
7.72673e-11
4.20334e-11
2.19803e-11
1.10486e-11
5.33851e-12
2.4795e-12
1.10698e-12
4.75052e-13
1.95961e-13
7.77001e-14
2.96137e-14
1.08488e-14
3.82017e-15
1.29168e-15
4.32425e-16
2.27972e-16
0
0
0
0
0
0
0
0
0
0
0
0
0
0
0
0
0
0
0
0
0
0
0
0
0
0
0
0
0
0
0
0
0
3.34563e-20
1.42018e-19
5.79447e-19
2.27243e-18
8.56589e-18
3.10358e-17
1.08085e-16
3.61808e-16
1.16414e-15
3.60036e-15
1.0703e-14
3.05832e-14
8.40008e-14
2.21772e-13
5.62802e-13
1.37288e-12
3.21915e-12
7.2561e-12
1.57225e-11
3.27479e-11
6.55535e-11
1.25096e-10
2.2704e-10
5.01023e-09
5.7371e-07
2.04372e-05
0.000571776
0.0194811
0.112625
0.263105
0.359653
0.426294
0.471002
0.417143
0.346202
0.243231
0.0914465
0.0122247
2.0401e-08
1.93339e-08
1.75731e-08
1.53547e-08
1.28971e-08
1.04135e-08
8.08269e-09
6.03074e-09
4.32551e-09
2.98234e-09
1.97664e-09
1.25935e-09
7.7128e-10
4.54071e-10
2.56968e-10
1.3979e-10
7.30996e-11
3.67443e-11
1.77542e-11
8.24605e-12
3.68147e-12
1.57988e-12
6.51712e-13
2.5841e-13
9.84881e-14
3.60808e-14
1.27052e-14
4.29628e-15
1.4346e-15
7.50343e-16
0
0
0
0
0
0
0
0
0
0
0
0
0
0
0
0
0
0
0
0
0
0
0
0
0
0
0
0
0
0
0
0
2.42168e-20
1.06954e-19
4.54022e-19
1.85251e-18
7.26523e-18
2.73869e-17
9.92302e-17
3.45584e-16
1.15684e-15
3.72227e-15
1.15121e-14
3.42231e-14
9.7792e-14
2.68601e-13
7.09145e-13
1.79965e-12
4.39003e-12
1.02939e-11
2.32028e-11
5.02753e-11
1.04715e-10
2.09653e-10
4.03493e-10
7.47513e-10
1.32781e-09
2.26688e-09
3.72381e-09
5.88031e-09
8.92623e-09
1.30254e-08
1.82714e-08
2.46384e-08
3.19379e-08
3.97923e-08
4.77662e-08
5.51145e-08
6.1025e-08
6.49543e-08
6.64609e-08
6.53706e-08
6.18097e-08
5.61809e-08
4.90883e-08
4.1231e-08
3.32909e-08
2.58394e-08
1.92795e-08
1.3828e-08
9.53403e-09
6.31894e-09
4.02588e-09
2.46562e-09
1.45156e-09
8.21467e-10
4.46876e-10
2.33681e-10
1.17463e-10
5.67558e-11
2.63606e-11
1.17688e-11
5.05052e-12
2.08338e-12
8.26082e-13
3.14847e-13
1.15344e-13
4.06165e-14
1.37359e-14
4.57582e-15
2.37559e-15
0
0
0
0
0
0
0
0
0
0
0
0
0
0
0
0
0
0
0
0
0
0
0
0
0
0
0
0
0
0
0
1.61929e-20
7.44087e-20
3.28641e-19
1.39514e-18
5.69268e-18
2.23263e-17
8.41632e-17
3.04953e-16
1.06207e-15
3.55533e-15
1.14398e-14
3.53813e-14
1.05182e-13
3.0056e-13
8.25544e-13
2.17957e-12
5.53131e-12
1.34931e-11
3.16392e-11
7.13159e-11
1.54524e-10
3.21846e-10
6.44371e-10
1.24012e-09
2.29419e-09
4.07982e-09
6.97422e-09
1.14604e-08
1.81029e-08
2.74883e-08
4.01236e-08
5.62994e-08
7.59383e-08
9.84631e-08
1.22727e-07
1.4705e-07
1.69374e-07
1.87537e-07
1.9961e-07
2.04239e-07
2.00887e-07
1.89943e-07
1.72644e-07
1.50847e-07
1.26701e-07
1.02301e-07
7.94026e-08
5.9244e-08
4.2492e-08
2.92969e-08
1.94172e-08
1.23709e-08
7.57645e-09
4.46041e-09
2.52423e-09
1.37317e-09
7.1806e-10
3.60941e-10
1.744e-10
8.10013e-11
3.61633e-11
1.55194e-11
6.40186e-12
2.53842e-12
9.67478e-13
3.54436e-13
1.2481e-13
4.22129e-14
1.4032e-14
7.23434e-15
0
0
0
0
0
0
0
0
0
0
0
0
0
0
0
0
0
0
0
0
0
0
0
0
0
0
0
0
0
0
1.00022e-20
4.78213e-20
2.19757e-19
9.70639e-19
4.1207e-18
1.68145e-17
6.59472e-17
2.48606e-16
9.00809e-16
3.13733e-15
1.05026e-14
3.37943e-14
1.04521e-13
3.10727e-13
8.87915e-13
2.43885e-12
6.43902e-12
1.6341e-11
3.98626e-11
9.34724e-11
2.1069e-10
4.56512e-10
9.50822e-10
1.90363e-09
3.66359e-09
6.77751e-09
1.20525e-08
2.0603e-08
3.38554e-08
5.3478e-08
8.12031e-08
1.18528e-07
1.66311e-07
2.24324e-07
2.90861e-07
3.62535e-07
4.34382e-07
5.00323e-07
5.5397e-07
5.89631e-07
6.03299e-07
5.93394e-07
5.61063e-07
5.09962e-07
4.45576e-07
3.74251e-07
3.02176e-07
2.34538e-07
1.74993e-07
1.25511e-07
8.65354e-08
5.73532e-08
3.65403e-08
2.23786e-08
1.31747e-08
7.4558e-09
4.05592e-09
2.12093e-09
1.06611e-09
5.15123e-10
2.39252e-10
1.06815e-10
4.58394e-11
1.89092e-11
7.49773e-12
2.85765e-12
1.04691e-12
3.68655e-13
1.24698e-13
4.1369e-14
2.11899e-14
0
0
0
0
0
0
0
0
0
0
0
0
0
0
0
0
0
0
0
0
0
0
0
0
0
0
0
0
0
0
2.83913e-20
1.35748e-19
6.23842e-19
2.75555e-18
1.16987e-17
4.7738e-17
1.87236e-16
7.05857e-16
2.55769e-15
8.90806e-15
2.98213e-14
9.59579e-14
2.96788e-13
8.82323e-13
2.52131e-12
6.92537e-12
1.82845e-11
4.64029e-11
1.13197e-10
2.65433e-10
5.98295e-10
1.29635e-09
2.70001e-09
5.40563e-09
1.04032e-08
1.92455e-08
3.42241e-08
5.85035e-08
9.61342e-08
1.51853e-07
2.30577e-07
3.3656e-07
4.72237e-07
6.3696e-07
8.25884e-07
1.02939e-06
1.23339e-06
1.42061e-06
1.57293e-06
1.67418e-06
1.71298e-06
1.68484e-06
1.59304e-06
1.44794e-06
1.26512e-06
1.0626e-06
8.57958e-07
6.65912e-07
4.96847e-07
3.56354e-07
2.45693e-07
1.62838e-07
1.03745e-07
6.35374e-08
3.74056e-08
2.11684e-08
1.15155e-08
6.0217e-09
3.02687e-09
1.46253e-09
6.7928e-10
3.03268e-10
1.30147e-10
5.36867e-11
2.12875e-11
8.11344e-12
2.97238e-12
1.04669e-12
3.54079e-13
1.17256e-13
5.96967e-14
0
0
0
0
0
0
0
0
0
0
0
0
0
0
0
0
0
0
0
0
0
0
0
0
0
0
0
0
0
1.55707e-20
7.74626e-20
3.70393e-19
1.70225e-18
7.51927e-18
3.19243e-17
1.30275e-16
5.10975e-16
1.92636e-15
6.98037e-15
2.43121e-14
8.13907e-14
2.619e-13
8.10043e-13
2.40821e-12
6.88172e-12
1.89025e-11
4.9907e-11
1.26657e-10
3.08974e-10
7.24509e-10
1.63307e-09
3.53841e-09
7.36971e-09
1.47547e-08
2.83953e-08
5.25298e-08
9.34131e-08
1.59682e-07
2.62391e-07
4.14467e-07
6.29336e-07
9.18598e-07
1.28891e-06
1.73849e-06
2.25411e-06
2.80954e-06
3.3663e-06
3.87728e-06
4.29297e-06
4.56928e-06
4.67515e-06
4.59835e-06
4.34777e-06
3.95174e-06
3.45278e-06
2.90005e-06
2.34153e-06
1.81739e-06
1.35598e-06
9.72548e-07
6.70535e-07
4.4441e-07
2.83136e-07
1.73402e-07
1.02085e-07
5.77713e-08
3.14273e-08
1.64339e-08
8.26068e-09
3.99141e-09
1.85384e-09
8.27653e-10
3.55186e-10
1.46517e-10
5.80962e-11
2.21426e-11
8.11202e-12
2.85657e-12
9.66427e-13
3.19515e-13
1.61751e-13
0
0
0
0
0
0
0
0
0
0
0
0
0
0
0
0
0
0
0
0
0
0
0
0
0
0
0
0
0
4.0833e-20
2.03151e-19
9.71434e-19
4.46471e-18
1.97226e-17
8.37384e-17
3.41727e-16
1.34039e-15
5.05335e-15
1.83118e-14
6.37798e-14
2.13522e-13
6.87085e-13
2.12515e-12
6.31802e-12
1.80546e-11
4.95923e-11
1.30937e-10
3.32301e-10
8.10638e-10
1.90087e-09
4.28463e-09
9.28359e-09
1.93355e-08
3.87108e-08
7.44987e-08
1.37818e-07
2.45079e-07
4.18939e-07
6.88402e-07
1.08738e-06
1.6511e-06
2.40998e-06
3.38149e-06
4.56095e-06
5.91368e-06
7.37083e-06
8.83144e-06
1.01719e-05
1.12625e-05
1.19873e-05
1.2265e-05
1.20635e-05
1.1406e-05
1.03671e-05
9.05804e-06
7.60799e-06
6.14274e-06
4.76772e-06
3.55724e-06
2.55135e-06
1.75906e-06
1.16584e-06
7.42765e-07
4.54894e-07
2.67804e-07
1.51554e-07
8.24443e-08
4.31117e-08
2.16705e-08
1.04708e-08
4.86322e-09
2.17121e-09
9.31769e-10
3.84364e-10
1.52406e-10
5.80874e-11
2.12805e-11
7.49375e-12
2.53552e-12
8.37033e-13
4.21515e-13
0
0
0
0
0
0
0
0
0
0
0
0
0
0
0
0
0
0
0
0
0
0
0
0
0
0
0
0
1.98832e-20
1.02929e-19
5.1212e-19
2.44899e-18
1.12561e-17
4.9725e-17
2.11131e-16
8.61629e-16
3.37974e-15
1.27422e-14
4.61747e-14
1.6083e-13
5.38435e-13
1.73264e-12
5.35911e-12
1.59327e-11
4.55305e-11
1.25064e-10
3.30204e-10
8.38023e-10
2.04435e-09
4.79382e-09
1.08055e-08
2.34124e-08
4.87623e-08
9.76248e-08
1.87877e-07
3.4756e-07
6.18057e-07
1.05651e-06
1.73605e-06
2.74221e-06
4.16379e-06
6.07755e-06
8.52748e-06
1.15018e-05
1.49131e-05
1.85877e-05
2.22709e-05
2.56513e-05
2.84012e-05
3.0229e-05
3.09292e-05
3.04209e-05
2.87629e-05
2.61428e-05
2.28418e-05
1.91851e-05
1.54902e-05
1.20227e-05
8.97026e-06
6.4337e-06
4.43577e-06
2.93988e-06
1.87301e-06
1.14709e-06
6.7531e-07
3.82167e-07
2.07896e-07
1.08713e-07
5.46455e-08
2.64037e-08
1.22633e-08
5.47502e-09
2.34959e-09
9.6923e-10
3.84314e-10
1.46476e-10
5.36621e-11
1.88966e-11
6.39432e-12
2.10808e-12
1.05641e-12
0
0
0
0
0
0
0
0
0
0
0
0
0
0
0
0
0
0
0
0
0
0
0
0
0
0
0
0
4.81742e-20
2.49398e-19
1.24094e-18
5.93455e-18
2.72777e-17
1.20507e-16
5.11686e-16
2.08827e-15
8.19148e-15
3.0884e-14
1.11919e-13
3.89829e-13
1.30512e-12
4.19982e-12
1.29904e-11
3.8621e-11
1.10367e-10
3.03162e-10
8.00441e-10
2.03145e-09
4.95573e-09
1.16208e-08
2.61939e-08
5.67547e-08
1.18206e-07
2.36654e-07
4.55435e-07
8.42521e-07
1.49823e-06
2.56106e-06
4.20832e-06
6.64731e-06
1.00933e-05
1.47323e-05
2.0671e-05
2.78809e-05
3.61499e-05
4.5057e-05
5.39852e-05
6.2179e-05
6.88448e-05
7.32751e-05
7.49721e-05
7.37398e-05
6.97208e-05
6.33696e-05
5.53678e-05
4.65041e-05
3.75475e-05
2.91425e-05
2.17435e-05
1.55949e-05
1.07521e-05
7.12609e-06
4.54005e-06
2.78047e-06
1.6369e-06
9.26346e-07
5.03925e-07
2.63512e-07
1.32456e-07
6.40004e-08
2.97254e-08
1.3271e-08
5.69522e-09
2.34933e-09
9.31544e-10
3.55046e-10
1.30072e-10
4.58039e-11
1.55009e-11
5.10414e-12
2.54627e-12
0
0
0
0
0
0
0
0
0
0
0
0
0
0
0
0
0
0
0
0
0
0
0
0
0
0
0
2.2103e-20
1.15913e-19
5.83812e-19
2.89072e-18
1.3823e-17
6.35406e-17
2.80725e-16
1.19203e-15
4.86499e-15
1.9084e-14
7.19535e-14
2.60754e-13
9.08261e-13
3.04084e-12
9.78546e-12
3.02676e-11
8.99882e-11
2.57162e-10
7.06392e-10
1.86511e-09
4.73351e-09
1.15475e-08
2.70782e-08
6.10358e-08
1.32247e-07
2.75437e-07
5.51437e-07
1.06123e-06
1.96319e-06
3.49106e-06
5.96758e-06
9.80587e-06
1.5489e-05
2.35184e-05
3.43277e-05
4.81654e-05
6.49649e-05
8.4232e-05
0.000104986
0.000125789
0.000144881
0.000160412
0.000170734
0.000174688
0.000171817
0.000162452
0.000147653
0.000129008
0.000108355
8.74864e-05
6.79025e-05
5.06625e-05
3.63363e-05
2.50524e-05
1.66038e-05
1.05783e-05
6.4785e-06
3.81398e-06
2.15838e-06
1.17414e-06
6.1398e-07
3.08622e-07
1.49121e-07
6.92599e-08
3.09214e-08
1.32698e-08
5.47394e-09
2.1705e-09
8.27258e-10
3.03069e-10
1.06724e-10
3.61208e-11
1.18811e-11
5.90236e-12
0
0
0
0
0
0
0
0
0
0
0
0
0
0
0
0
0
0
0
0
0
0
0
0
0
2.91373e-06
0.00110407
0.00553748
0.0123904
0.0181575
0.0204956
0.0184705
0.0129026
0.00597509
0.00125521
4.3985e-06
8.14108e-09
1.41074e-11
6.00959e-13
2.03425e-12
6.8106e-12
2.19168e-11
6.77919e-11
2.01553e-10
5.75988e-10
1.58217e-09
4.17748e-09
1.06022e-08
2.58644e-08
6.06507e-08
1.3671e-07
2.96211e-07
6.16932e-07
1.23512e-06
2.37696e-06
4.39718e-06
7.81932e-06
1.33662e-05
2.19632e-05
3.46921e-05
5.26764e-05
7.68868e-05
0.00010788
0.000145507
0.00018866
0.000235144
0.000281737
0.000324498
0.000359283
0.000382402
0.000391257
0.000384824
0.000363849
0.000330703
0.000288944
0.000242687
0.000195945
0.000152083
0.00011347
8.13831e-05
5.61101e-05
3.71878e-05
2.36924e-05
1.451e-05
8.54222e-06
4.83415e-06
2.62974e-06
1.37514e-06
6.91227e-07
3.33989e-07
1.55123e-07
6.92556e-08
2.9721e-08
1.22603e-08
4.86139e-09
1.85287e-09
6.7881e-10
2.3904e-10
8.09094e-11
2.65889e-11
1.31643e-11
0
0
0
0
0
0
0
0
0
0
0
0
0
0
0
0
0
0
0
0
0
0
0
0
0.001155
0.00913925
0.026776
0.0493093
0.0702697
0.084842
0.0903916
0.0856464
0.0717264
0.051126
0.0284268
0.0100711
0.00139011
1.57232e-06
4.54146e-09
3.29662e-11
1.47488e-11
4.71878e-11
1.45958e-10
4.33951e-10
1.24012e-09
3.40648e-09
8.99428e-09
2.2827e-08
5.56872e-08
1.30584e-07
2.94343e-07
6.37754e-07
1.32828e-06
2.65925e-06
5.11764e-06
9.46719e-06
1.68351e-05
2.87776e-05
4.72868e-05
7.4692e-05
0.000113412
0.000165536
0.000232264
0.000313273
0.000406181
0.000506259
0.000606571
0.000698632
0.000773523
0.000823296
0.000842359
0.000828508
0.000783348
0.000711986
0.000622079
0.00052249
0.000421858
0.000327424
0.000244293
0.000175212
0.000120801
8.00626e-05
5.1008e-05
3.12389e-05
1.83908e-05
1.04076e-05
5.66166e-06
2.96059e-06
1.48817e-06
7.1906e-07
3.33974e-07
1.49105e-07
6.39887e-08
2.63962e-08
1.04666e-08
3.98927e-09
1.46151e-09
5.1467e-10
1.74209e-10
5.7207e-11
2.82547e-11
0
0
0
0
0
0
0
0
0
0
0
0
0
0
0
0
0
0
0
0
0
0
0
0.00290389
0.0190857
0.0529568
0.0951853
0.134498
0.164373
0.183051
0.189788
0.184069
0.166341
0.137353
0.0986301
0.0562219
0.0211554
0.00351389
8.96971e-06
7.23989e-08
3.47376e-10
9.86151e-11
3.02084e-10
8.98116e-10
2.56659e-09
7.05012e-09
1.86147e-08
4.72431e-08
1.15251e-07