# vtk DataFile Version 2.0
Structured output generated by Nextsim
ASCII
DATASET STRUCTURED_POINTS
DIMENSIONS 3 3 1
ORIGIN 0 0 0
SPACING 0.5 0.5 0.5
POINT_DATA 9
SCALARS interpolate DOUBLE 1
LOOKUP_TABLE default
5.10555e-08
1.58297e-06
3.11488e-06
2.58072e-08
2.46017e-05
4.91776e-05
5.59e-10
4.76204e-05
9.52402e-05
CELL_DATA 4
SCALARS average DOUBLE 1
LOOKUP_TABLE default
5.10555e-08
3.11488e-06
5.59e-10
9.52402e-05
