# vtk DataFile Version 2.0
Structured output generated by Nextsim
ASCII
DATASET STRUCTURED_POINTS
DIMENSIONS 101 101 1
ORIGIN 0 0 0
SPACING 0.01 0.01 0.01
POINT_DATA 10201
SCALARS interpolate DOUBLE 1
LOOKUP_TABLE default
0
0
0
0
0
0
0
0
0
0
0
0
0
0
0
0
0
0
0
0
0
0
0
0
0
0
0
0
0
0
0
0
0
0
0
0
0
0
0
0
0
0
0
0
0
0
0
0
0
0
0
0
0
0
0
0
0
0
0
0
0
0
0
0
0
0
0
0
0
0
0
0
0
0
0
0
0
0
0
0
0
0
0
0
0
0
0
0
0
0
0
0
0
0
0
0
0
0
0
0
0
0
0
0
0
0
0
0
0
0
0
0
0
0
0
0
0
0
0
0
0
0
0
0
0
0
0
0
0
0
0
0
0
0
0
0
0
0
0
0
0
0
0
0
0
0
0
0
0
0
0
0
0
0
0
0
0
0
0
0
0
0
0
0
0
0
0
0
0
0
0
0
0
0
0
0
0
0
0
0
0
0
0
0
0
0
0
0
0
0
0
0
0
0
0
0
0
0
0
0
0
0
0
0
0
0
0
0
0
0
0
0
0
0
0
0
0
0
0
0
0
0
0
0
0
0
0
0
0
0
0
0
0
0
0
0
0
0
0
0
0
0
0
0
0
0
0
0
0
0
0
0
0
0
0
0
0
0
0
0
0
0
0
0
0
0
0
0
0
0
0
0
0
0
0
0
0
0
0
0
0
0
0
0
0
0
0
0
0
0
0
0
0
0
0
0
0
0
0
0
0
0
0
0
0
0
0
0
0
0
0
0
0
0
0
0
0
0
0
0
0
0
0
0
0
0
0
0
0
0
0
0
0
0
0
0
0
0
0
0
0
0
0
0
0
0
0
0
0
0
0
0
0
0
0
0
0
0
0
0
0
0
0
0
0
0
0
0
0
0
0
0
0
0
0
0
0
0
0
0
0
0
0
0
0
0
0
0
0
0
0
0
0
0
0
0
0
0
0
0
0
0
0
0
0
0
0
0
0
0
0
0
0
0
0
0
0
0
0
0
0
0
0
0
0
0
0
0
0
0
0
0
0
0
0
0
0
0
0
0
0
0
0
0
0
0
0
0
0
0
0
0
0
0
0
0
0
0
0
0
0
0
0
0
0
0
0
0
0
0
0
0
0
0
0
0
0
0
0
0
0
0
0
0
0
0
0
0
0
0
0
0
0
0
0
0
0
0
0
0
0
0
0
0
0
0
0
0
0
0
0
0
0
0
0
0
0
0
0
0
0
0
0
0
0
0
0
0
0
0
0
0
0
0
0
0
0
0
0
0
0
0
0
0
0
0
0
0
0
0
0
0
0
0
0
0
0
0
0
0
0
0
0
0
0
0
0
0
0
0
0
0
0
0
0
0
0
0
0
0
0
0
0
0
0
0
0
0
0
0
0
0
0
0
0
0
0
0
0
0
0
0
0
0
0
0
0
0
0
0
0
0
0
0
0
0
0
0
0
0
0
0
0
0
0
0
0
0
0
0
0
0
0
0
0
0
0
0
0
0
0
0
0
0
0
0
0
0
0
0
0
0
0
0
0
0
0
0
0
0
0
0
0
0
0
0
0
0
0
0
0
0
0
0
0
0
0
0
0
0
0
0
0
0
0
0
0
0
0
0
0
0
0
0
0
0
0
0
0
0
0
0
0
0
0
0
0
0
0
0
0
0
0
0
0
0
0
0
0
0
0
0
0
0
0
0
0
0
0
0
0
0
0
0
0
0
0
0
0
0
0
0
0
0
0
0
0
0
0
0
0
0
0
0
0
0
0
0
0
0
0
0
0
0
0
0
0
0
0
0
1.91087e-20
4.7189e-20
1.07861e-19
2.16845e-19
3.20362e-19
1.88484e-19
2.34722e-20
1.37276e-20
0
0
0
0
0
0
0
0
0
0
0
0
0
0
0
0
0
0
0
0
0
0
0
0
0
0
0
0
0
0
0
0
0
0
0
0
0
0
0
0
0
0
0
0
0
0
0
0
0
0
0
0
0
0
0
0
0
0
0
0
0
0
0
0
0
0
0
0
0
0
0
0
0
0
0
0
0
0
0
0
0
0
0
0
0
0
0
0
0
0
1.31981e-20
1.00239e-19
4.93923e-19
1.38573e-18
3.19791e-18
6.87079e-18
1.30921e-17
1.85578e-17
1.07237e-17
1.32517e-18
7.62631e-19
9.27815e-20
5.20514e-20
0
0
0
0
0
0
0
0
0
0
0
0
0
0
0
0
0
0
0
0
0
0
0
0
0
0
0
0
0
0
0
0
0
0
0
0
0
0
0
0
0
0
0
0
0
0
0
0
0
0
0
0
0
0
0
0
0
0
0
0
0
0
0
0
0
0
0
0
0
0
0
0
0
0
0
0
0
0
0
0
0
0
0
0
0
0
0
9.99099e-20
1.00884e-18
7.36358e-18
3.48308e-17
9.21328e-17
1.98604e-16
4.00902e-16
7.23668e-16
9.83839e-16
5.58282e-16
6.88129e-17
3.89655e-17
4.74621e-18
2.62377e-18
9.40918e-20
0
0
0
0
0
0
0
0
0
0
0
0
0
0
0
0
0
0
0
0
0
0
0
0
0
0
0
0
0
0
0
0
0
0
0
0
0
0
0
0
0
0
0
0
0
0
0
0
0
0
0
0
0
0
0
0
0
0
0
0
0
0
0
0
0
0
0
0
0
0
0
0
0
0
0
0
0
0
0
0
0
0
0
0
3.77463e-20
5.83411e-19
7.27651e-18
7.03002e-17
4.92474e-16
2.23672e-15
5.58206e-15
1.12349e-14
2.12976e-14
3.64007e-14
4.74462e-14
2.64369e-14
3.27005e-15
1.82189e-15
2.23304e-16
1.21634e-16
4.52522e-18
0
0
0
0
0
0
0
0
0
0
0
0
0
0
0
0
0
0
0
0
0
0
0
0
0
0
0
0
0
0
0
0
0
0
0
0
0
0
0
0
0
0
0
0
0
0
0
0
0
0
0
0
0
0
0
0
0
0
0
0
0
0
0
0
0
0
0
0
0
0
0
0
0
0
0
0
0
0
0
0
0
0
0
1.57429e-19
2.77604e-18
4.06318e-17
4.81431e-16
4.43643e-15
2.97702e-14
1.29831e-13
3.05926e-13
5.74668e-13
1.02258e-12
1.654e-12
2.06623e-12
1.13052e-12
1.41351e-13
7.74917e-14
9.61423e-15
5.16008e-15
2.00109e-16
1.75517e-19
0
0
0
0
0
0
0
0
0
0
0
0
0
0
0
0
0
0
0
0
0
0
0
0
0
0
0
0
0
0
0
0
0
0
0
0
0
0
0
0
0
0
0
0
0
0
0
0
0
0
0
0
0
0
0
0
0
0
0
0
0
0
0
0
0
0
0
0
0
0
0
0
0
0
0
0
0
0
0
0
2.48473e-20
5.72462e-19
1.12409e-17
1.86227e-16
2.56595e-15
2.87336e-14
2.51519e-13
1.61233e-12
6.75024e-12
1.50295e-11
2.63392e-11
4.39766e-11
6.72837e-11
8.05289e-11
4.32749e-11
5.51732e-12
2.97686e-12
3.76514e-13
1.99129e-13
8.09541e-15
8.08444e-18
0
0
0
0
0
0
0
0
0
0
0
0
0
0
0
0
0
0
0
0
0
0
0
0
0
0
0
0
0
0
0
0
0
0
0
0
0
0
0
0
0
0
0
0
0
0
0
0
0
0
0
0
0
0
0
0
0
0
0
0
0
0
0
0
0
0
0
0
0
0
0
0
0
0
0
0
0
0
0
7.37355e-20
1.85656e-18
4.00323e-17
7.33665e-16
1.1334e-14
1.4591e-13
1.53388e-12
1.26854e-11
7.73826e-11
3.10819e-10
6.54422e-10
1.0696e-09
1.67499e-09
2.42299e-09
2.77751e-09
1.46664e-09
1.92731e-10
1.02382e-10
1.33145e-11
6.94019e-12
2.97806e-13
3.42393e-16
3.18886e-19
0
0
0
0
0
0
0
0
0
0
0
0
0
0
0
0
0
0
0
0
0
0
0
0
0
0
0
0
0
0
0
0
0
0
0
0
0
0
0
0
0
0
0
0
0
0
0
0
0
0
0
0
0
0
0
0
0
0
0
0
0
0
0
0
0
0
0
0
0
0
0
0
0
0
0
0
0
1.97933e-19
5.42778e-18
1.27827e-16
2.56511e-15
4.3552e-14
6.21792e-13
7.40782e-12
7.24752e-11
5.62246e-10
3.2459e-09
1.2493e-08
2.48927e-08
3.79316e-08
5.56953e-08
7.61428e-08
8.35778e-08
4.34023e-08
5.95828e-09
3.11836e-09
4.21376e-10
2.16547e-10
9.88973e-12
1.32664e-14
1.4091e-17
0
0
0
0
0
0
0
0
0
0
0
0
0
0
0
0
0
0
0
0
0
0
0
0
0
0
0
0
0
0
0
0
0
0
0
0
0
0
0
0
0
0
0
0
0
0
0
0
0
0
0
0
0
0
0
0
0
0
0
0
0
0
0
0
0
0
0
0
0
0
0
0
0
0
0
1.39751e-20
4.79014e-19
1.42845e-17
3.67113e-16
8.05691e-15
1.49662e-13
2.33599e-12
3.05027e-11
3.32286e-10
2.99133e-09
2.15622e-08
1.16873e-07
4.30092e-07
8.1156e-07
1.15268e-06
1.58648e-06
2.04911e-06
2.15342e-06
1.10145e-06
1.60718e-07
8.29622e-08
1.18027e-08
5.98342e-09
2.93845e-10
4.67429e-13
5.72515e-16
0
0
0
0
0
0
0
0
0
0
0
0
0
0
0
0
0
0
0
0
0
0
0
0
0
0
0
0
0
0
0
0
0
0
0
0
0
0
0
0
0
0
0
0
0
0
0
0
0
0
0
0
0
0
0
0
0
0
0
0
0
0
0
0
0
0
0
0
0
0
0
0
0
0
2.88336e-20
1.03617e-18
3.34916e-17
9.38484e-16
2.25567e-14
4.60034e-13
7.87527e-12
1.12167e-10
1.32423e-09
1.29947e-08
1.06032e-07
7.01122e-07
3.52609e-06
1.23592e-05
2.20964e-05
2.92486e-05
3.77283e-05
4.60279e-05
4.63159e-05
2.33951e-05
3.7128e-06
1.8937e-06
2.88474e-07
1.444e-07
7.72521e-09
1.48679e-11
2.12804e-14
0
0
0
0
0
0
0
0
0
0
0
0
0
0
0
0
0
0
0
0
0
0
0
0
0
0
0
0
0
0
0
0
0
0
0
0
0
0
0
0
0
0
0
0
0
0
0
0
0
0
0
0
0
0
0
0
0
0
0
0
0
0
0
0
0
0
0
0
0
0
0
0
0
5.53712e-20
2.03243e-18
6.89774e-17
2.09801e-15
5.5147e-14
1.23771e-12
2.3415e-11
3.68258e-10
4.75622e-09
5.01657e-08
4.35383e-07
3.15527e-06
1.88069e-05
8.61751e-05
0.000285699
0.000484016
0.000597118
0.000721898
0.000831866
0.000801941
0.000401953
7.16269e-05
3.62066e-05
6.03965e-06
2.98969e-06
1.77188e-07
4.23144e-10
7.19279e-13
0
0
0
0
0
0
0
0
0
0
0
0
0
0
0
0
0
0
0
0
0
0
0
0
0
0
0
0
0
0
0
0
0
0
0
0
0
0
0
0
0
0
0
0
0
0
0
0
0
0
0
0
0
0
0
0
0
0
0
0
0
0
0
0
0
0
0
0
0
0
0
0
9.62153e-20
3.6192e-18
1.25778e-16
4.02191e-15
1.14834e-13
2.82639e-12
5.91638e-11
1.03721e-09
1.49619e-08
1.74441e-07
1.62516e-06
1.22023e-05
7.63595e-05
0.000400304
0.0016224
0.00501945
0.00805115
0.00926142
0.010499
0.0114332
0.0105754
0.00530909
0.00111326
0.000560669
0.000105635
5.18414e-05
3.48086e-06
1.06565e-08
2.19471e-11
0
0
0
0
0
0
0
0
0
0
0
0
0
0
0
0
0
0
0
0
0
0
0
0
0
0
0
0
0
0
0
0
0
0
0
0
0
0
0
0
0
0
0
0
0
0
0
0
0
0
0
0
0
0
0
0
0
0
0
0
0
0
0
0
0
0
0
0
0
0
0
1.45721e-19
5.63503e-18
2.01212e-16
6.60622e-15
1.98437e-13
5.30247e-12
1.21941e-10
2.37753e-09
3.86006e-08
5.10392e-07
5.35785e-06
4.36589e-05
0.000276346
0.00143346
0.0063748
0.0216989
0.0608041
0.0920118
0.0988508
0.105246
0.108507
0.0967022
0.0496462
0.0131993
0.00669006
0.00148948
0.000727936
5.71291e-05
2.34165e-07
5.9916e-10
0
0
0
0
0
0
0
0
0
0
0
0
0
0
0
0
0
0
0
0
0
0
0
0
0
0
0
0
0
0
0
0
0
0
0
0
0
0
0
0
0
0
0
0
0
0
0
0
0
0
0
0
0
0
0
0
0
0
0
0
0
0
0
0
0
0
0
0
0
0
1.82638e-19
7.28156e-18
2.6797e-16
9.06373e-15
2.80331e-13
7.88e-12
1.96294e-10
4.2054e-09
7.62217e-08
1.14477e-06
1.38664e-05
0.000130859
0.000925183
0.00479167
0.019338
0.068849
0.177972
0.415235
0.584408
0.589971
0.593555
0.583391
0.508062
0.282958
0.108926
0.0567937
0.0160428
0.00787411
0.000756237
4.40786e-06
1.44736e-08
0
0
0
0
0
0
0
0
0
0
0
0
0
0
0
0
0
0
0
0
0
0
0
0
0
0
0
0
0
0
0
0
0
0
0
0
0
0
0
0
0
0
0
0
0
0
0
0
0
0
0
0
0
0
0
0
0
0
0
0
0
0
0
0
0
0
0
0
0
1.74891e-19
7.20793e-18
2.74165e-16
9.58267e-15
3.06195e-13
8.88931e-12
2.32732e-10
5.37793e-09
1.06897e-07
1.79493e-06
2.48663e-05
0.000275219
0.00232753
0.0141557
0.057906
0.163184
0.415994
0.657813
0.859176
0.999985
0.999812
0.998109
0.985369
0.919518
0.725038
0.522595
0.297649
0.120647
0.0605762
0.00765759
6.93371e-05
3.05034e-07
0
0
0
0
0
0
0
0
0
0
0
0
0
0
0
0
0
0
0
0
0
0
0
0
0
0
0
0
0
0
0
0
0
0
0
0
0
0
0
0
0
0
0
0
0
0
0
0
0
0
0
0
0
0
0
0
0
0
0
0
0
0
0
0
0
0
0
0
1.10664e-19
4.72772e-18
1.8641e-16
6.75424e-15
2.2374e-13
6.73445e-12
1.82818e-10
4.43534e-09
9.45364e-08
1.73354e-06
2.67998e-05
0.00033994
0.00340554
0.0254772
0.130536
0.400218
0.645206
0.853138
1
1
1
0.999999
0.999988
0.999839
0.998331
0.986658
0.924323
0.734559
0.532573
0.287663
0.0543786
0.000880103
5.5062e-06
4.49702e-20
3.6848e-20
2.90321e-20
2.19901e-20
1.60124e-20
1.12086e-20
0
0
0
0
0
0
0
0
0
0
0
0
0
0
0
0
0
0
0
0
0
0
0
0
0
0
0
0
0
0
0
0
0
0
0
0
0
0
0
0
0
0
0
0
0
0
0
0
0
0
0
0
0
0
0
0
0
0
0
0
0
3.27821e-20
1.45841e-18
5.99088e-17
2.26274e-15
7.8188e-14
2.45705e-12
6.97159e-11
1.77044e-09
3.98039e-08
7.81234e-07
1.31429e-05
0.000184979
0.00210571
0.0184482
0.114998
0.445323
0.84684
1
1
1
1
1
1
1
0.999999
0.999989
0.99985
0.998351
0.985861
0.912134
0.646895
0.230603
0.00855305
8.30358e-05
2.72432e-19
2.22744e-19
1.75046e-19
1.32246e-19
9.60485e-20
6.7061e-20
4.50103e-20
2.90409e-20
1.80118e-20
1.07385e-20
0
0
0
0
0
0
0
0
0
0
0
0
0
0
0
0
0
0
0
0
0
0
0
0
0
0
0
0
0
0
0
0
0
0
0
0
0
0
0
0
0
0
0
0
0
0
0
0
0
0
0
0
0
0
0
0
0
6.31863e-20
2.8519e-18
1.18848e-16
4.55322e-15
1.59549e-13
5.08231e-12
1.46082e-10
3.75455e-09
8.53117e-08
1.68241e-06
2.81227e-05
0.000387955
0.00425524
0.0351139
0.19955
0.66833
1
1
1
1
1
1
1
1
1
0.999999
0.999982
0.999748
0.997126
0.974891
0.845379
0.425249
0.0584104
0.00100985
1.59268e-18
1.29812e-18
1.01761e-18
7.66896e-19
5.55607e-19
3.86963e-19
2.59081e-19
1.66746e-19
1.03164e-19
6.13538e-20
3.50744e-20
1.92739e-20
1.01805e-20
0
0
0
0
0
0
0
0
0
0
0
0
0
0
0
0
0
0
0
0
0
0
0
0
0
0
0
0
0
0
0
0
0
0
0
0
0
0
0
0
0
0
0
0
0
0
0
0
0
0
0
0
0
1.01702e-20
4.89123e-19
2.17205e-17
8.86813e-16
3.31227e-14
1.125e-12
3.4497e-11
9.46642e-10
2.29941e-08
4.87591e-07
8.86318e-06
0.000134748
0.00165581
0.0156352
0.104662
0.430827
0.840271
1
1
1
1
1
1
1
1
1
1
0.999992
0.99989
0.998694
0.987997
0.920346
0.661386
0.239631
0.00939024
8.95872e-18
7.29284e-18
5.70332e-18
4.28789e-18
3.09912e-18
2.15329e-18
1.43824e-18
9.23452e-19
5.69965e-19
3.38162e-19
1.92858e-19
1.05726e-19
5.5712e-20
2.82184e-20
1.37382e-20
0
0
0
0
0
0
0
0
0
0
0
0
0
0
0
0
0
0
0
0
0
0
0
0
0
0
0
0
0
0
0
0
0
0
0
0
0
0
0
0
0
0
0
0
0
0
0
0
0
0
0
1.8473e-20
9.0209e-19
4.06801e-17
1.68663e-15
6.39652e-14
2.20544e-12
6.86221e-11
1.90944e-09
4.69784e-08
1.00729e-06
1.83829e-05
0.000276758
0.00330981
0.0297265
0.183096
0.65642
1
1
1
1
1
1
1
1
1
1
1
0.999999
0.999988
0.999815
0.997725
0.978565
0.858113
0.438571
0.061125
4.84608e-17
3.94917e-17
3.08135e-17
2.31132e-17
1.66669e-17
1.15537e-17
7.69926e-18
4.93212e-18
3.03717e-18
1.79782e-18
1.02296e-18
5.59506e-19
2.94153e-19
1.48648e-19
7.22036e-20
3.37104e-20
1.51276e-20
0
0
0
0
0
0
0
0
0
0
0
0
0
0
0
0
0
0
0
0
0
0
0
0
0
0
0
0
0
0
0
0
0
0
0
0
0
0
0
0
0
0
0
0
0
0
0
0
0
1.48869e-19
7.19394e-18
3.19617e-16
1.2989e-14
4.79948e-13
1.60079e-11
4.77691e-10
1.26138e-08
2.90643e-07
5.73834e-06
9.4757e-05
0.00126493
0.0129716
0.0940903
0.415714
0.83342
1
1
1
1
1
1
1
1
1
1
1
1
0.999995
0.999921
0.998982
0.989897
0.927835
0.67255
0.235556
2.53487e-16
2.06111e-16
1.60464e-16
1.20099e-16
8.6412e-17
5.97694e-17
3.97416e-17
2.5402e-17
1.56077e-17
9.21836e-18
5.23365e-18
2.85618e-18
1.49828e-18
7.55468e-19
3.66145e-19
1.70567e-19
7.63731e-20
3.28685e-20
1.3596e-20
0
0
0
0
0
0
0
0
0
0
0
0
0
0
0
0
0
0
0
0
0
0
0
0
0
0
0
0
0
0
0
0
0
0
0
0
0
0
0
0
0
0
0
0
0
0
0
2.19025e-19
1.07033e-17
4.81045e-16
1.97784e-14
7.39416e-13
2.49509e-11
7.5313e-10
2.01077e-08
4.68101e-07
9.32504e-06
0.000155072
0.00207837
0.0212656
0.151702
0.632368
1
1
1
1
1
1
1
1
1
1
1
1
1
1
0.999991
0.999848
0.997958
0.978984
0.849235
0.368351
1.28276e-15
1.03667e-15
8.05378e-16
6.01504e-16
4.31868e-16
2.98079e-16
1.97775e-16
1.26145e-16
7.73415e-17
4.55826e-17
2.58239e-17
1.40629e-17
7.36127e-18
3.70381e-18
1.79125e-18
8.32669e-19
3.7204e-19
1.59773e-19
6.59486e-20
2.61634e-20
0
0
0
0
0
0
0
0
0
0
0
0
0
0
0
0
0
0
0
0
0
0
0
0
0
0
0
0
0
0
0
0
0
0
0
0
0
0
0
0
0
0
0
0
0
0
1.20557e-19
6.11379e-18
2.85908e-16
1.22399e-14
4.76744e-13
1.67714e-11
5.28127e-10
1.47212e-08
3.58099e-07
7.46166e-06
0.000129852
0.00182064
0.0194732
0.144961
0.627185
1
1
1
1
1
1
1
1
1
1
1
1
1
1
0.999993
0.999873
0.99821
0.980744
0.855874
0.373459
6.23091e-15
5.02445e-15
3.8955e-15
2.90347e-15
2.08038e-15
1.43296e-15
9.48825e-16
6.03936e-16
3.69524e-16
2.17338e-16
1.22875e-16
6.67765e-17
3.48824e-17
1.75149e-17
8.45318e-18
3.92139e-18
1.74849e-18
7.49342e-19
3.08666e-19
1.22204e-19
4.65006e-20
1.70058e-20
0
0
0
0
0
0
0
0
0
0
0
0
0
0
0
0
0
0
0
0
0
0
0
0
0
0
0
0
0
0
0
0
0
0
0
0
0
0
0
0
0
0
0
0
6.34338e-20
3.30317e-18
1.61802e-16
7.26466e-15
2.9681e-13
1.09536e-11
3.61866e-10
1.05824e-08
2.70069e-07
5.90338e-06
0.000107753
0.00158402
0.0177505
0.138195
0.621913
0.999986
1
1
1
1
1
1
1
1
1
1
1
1
1
0.999994
0.999892
0.998412
0.982183
0.861387
0.377718
2.91513e-14
2.34641e-14
1.81565e-14
1.35063e-14
9.65849e-15
6.63968e-15
4.38776e-15
2.78735e-15
1.7021e-15
9.99121e-16
5.6375e-16
3.05762e-16
1.59406e-16
7.98806e-17
3.84761e-17
1.78135e-17
7.92696e-18
3.39048e-18
1.39382e-18
5.5073e-19
2.09147e-19
7.6336e-20
2.67569e-20
0
0
0
0
0
0
0
0
0
0
0
0
0
0
0
0
0
0
0
0
0
0
0
0
0
0
0
0
0
0
0
0
0
0
0
0
0
0
0
0
0
0
0
3.80165e-20
1.74501e-18
8.89216e-17
4.19562e-15
1.80256e-13
6.99573e-12
2.43054e-10
7.4752e-09
2.00622e-07
4.61135e-06
8.8489e-05
0.00136707
0.0160871
0.131288
0.615918
0.999434
0.999999
1
1
1
1
1
1
1
1
1
1
1
1
0.999994
0.999888
0.998335
0.981334
0.856836
0.373944
1.31405e-13
1.05572e-13
8.15388e-14
6.05415e-14
4.32125e-14
2.96502e-14
1.9557e-14
1.24001e-14
7.55777e-15
4.42793e-15
2.49368e-15
1.34992e-15
7.02422e-16
3.51322e-16
1.68897e-16
7.80455e-17
3.46636e-17
1.47977e-17
6.07167e-18
2.39446e-18
9.07583e-19
3.30623e-19
1.15676e-19
3.81893e-20
1.78084e-20
0
0
0
0
0
0
0
0
0
0
0
0
0
0
0
0
0
0
0
0
0
0
0
0
0
0
0
0
0
0
0
0
0
0
0
0
0
0
0
0
1.05543e-20
4.72541e-20
9.63975e-19
4.7282e-17
2.33826e-15
1.05795e-13
4.32474e-12
1.58239e-10
5.12384e-09
1.4472e-07
3.49841e-06
7.05549e-05
0.00114494
0.0141413
0.120967
0.592741
0.984813
0.999976
1
1
1
1
1
1
1
1
1
1
1
0.999999
0.999986
0.999756
0.996665
0.967153
0.793346
0.323089
5.70595e-13
4.57604e-13
3.52798e-13
2.61477e-13
1.86297e-13
1.27596e-13
8.40081e-14
5.31684e-14
3.23466e-14
1.89165e-14
1.06337e-14
5.74583e-15
2.98431e-15
1.48987e-15
7.14936e-16
3.29754e-16
1.46188e-16
6.22919e-17
2.55118e-17
1.00424e-17
3.79937e-18
1.38152e-18
4.82501e-19
1.59177e-19
7.43389e-20
0
0
0
0
0
0
0
0
0
0
0
0
0
0
0
0
0
0
0
0
0
0
0
0
0
0
0
0
0
0
0
0
0
0
0
0
0
0
0
1.35076e-20
4.44713e-20
1.452e-19
7.18962e-19
1.76342e-17
8.4553e-16
3.9364e-14
1.66068e-12
6.27085e-11
2.0958e-09
6.11355e-08
1.5285e-06
3.19462e-05
0.00053885
0.00696111
0.0632043
0.343451
0.785891
0.999191
0.999999
1
1
1
1
1
1
1
1
1
1
0.999997
0.999946
0.99915
0.989429
0.909794
0.558432
0.138865
2.38656e-12
1.91069e-12
1.47056e-12
1.08803e-12
7.73854e-13
5.29097e-13
3.47746e-13
2.19702e-13
1.33428e-13
7.78922e-14
4.3709e-14
2.35762e-14
1.22235e-14
6.0916e-15
2.91794e-15
1.34347e-15
5.94535e-16
2.52884e-16
1.03385e-16
4.06235e-17
1.53418e-17
5.56863e-18
1.94154e-18
6.40082e-19
2.99399e-19
0
0
0
0
0
0
0
0
0
0
0
0
0
0
0
0
0
0
0
0
0
0
0
0
0
0
0
0
0
0
0
0
0
0
0
0
0
0
1.62843e-20
5.57262e-20
1.8348e-19
5.8137e-19
1.78135e-18
5.73334e-18
4.11117e-17
1.23418e-15
4.99592e-14
1.93356e-12
6.98859e-11
2.34987e-09
7.25926e-08
1.96789e-06
4.45344e-05
0.000810407
0.011208
0.106974
0.578111
0.981539
0.99996
0.999996
0.999997
1
1
1
1
1
1
1
0.999996
0.999978
0.999769
0.997399
0.972562
0.809884
0.334933
1.15632e-11
9.61416e-12
7.68456e-12
5.90466e-12
4.3615e-12
3.09695e-12
2.11391e-12
1.38703e-12
8.74839e-13
5.30407e-13
3.09117e-13
1.73166e-13
9.32454e-14
4.82625e-14
2.40107e-14
1.14817e-14
5.27733e-15
2.33142e-15
9.89964e-16
4.04025e-16
1.58482e-16
5.97494e-17
2.165e-17
7.53595e-18
2.4829e-18
1.16326e-18
0
0
0
0
0
0
0
0
0
0
0
0
0
0
0
0
0
0
0
0
0
0
0
0
0
0
0
0
0
0
0
0
0
0
0
0
0
1.80925e-20
6.44602e-20
2.20955e-19
7.2865e-19
2.31167e-18
7.05611e-18
2.07782e-17
6.2494e-17
3.86277e-16
1.22727e-14
5.62365e-13
2.38598e-11
8.98963e-10
2.95814e-08
8.33787e-07
1.96243e-05
0.000372305
0.0053976
0.0547344
0.327674
0.776873
0.998822
0.999856
0.999918
0.99999
0.999994
0.999999
0.999999
0.999998
0.999997
0.999991
0.99994
0.999746
0.998406
0.990158
0.92019
0.573461
0.144821
4.4932e-11
3.73004e-11
2.97674e-11
2.28368e-11
1.68418e-11
1.19397e-11
8.13679e-12
5.33035e-12
3.35659e-12
2.03178e-12
1.18218e-12
6.6118e-13
3.55447e-13
1.83673e-13
9.12279e-14
4.35529e-14
1.99852e-14
8.81447e-15
3.73661e-15
1.52246e-15
5.96211e-16
2.24405e-16
8.11776e-17
2.82113e-17
9.28964e-18
4.35959e-18
0
0
0
0
0
0
0
0
0
0
0
0
0
0
0
0
0
0
0
0
0
0
0
0
0
0
0
0
0
0
0
0
0
0
0
0
1.85209e-20
6.87073e-20
2.45215e-19
8.41939e-19
2.78092e-18
8.83608e-18
2.70072e-17
7.94043e-17
2.24649e-16
6.16059e-16
1.85997e-15
1.62745e-14
5.52464e-13
2.29353e-11
9.17252e-10
3.31136e-08
1.0239e-06
2.64037e-05
0.000547165
0.00860549
0.0930631
0.56289
0.976201
0.996499
0.998085
0.999739
0.999854
0.999979
0.999972
0.999963
0.999946
0.999842
0.999121
0.997107
0.987045
0.960816
0.81883
0.347199
1.94982e-10
1.68127e-10
1.39364e-10
1.11052e-10
8.50681e-11
6.26415e-11
4.43413e-11
3.01718e-11
1.9735e-11
1.24082e-11
7.49916e-12
4.35657e-12
2.43276e-12
1.30579e-12
6.73692e-13
3.34086e-13
1.59243e-13
7.29564e-14
3.21264e-14
1.35973e-14
5.53132e-15
2.16266e-15
8.12695e-16
2.93519e-16
1.01848e-16
3.35202e-17
1.57582e-17
0
0
0
0
0
0
0
0
0
0
0
0
0
0
0
0
0
0
0
0
0
0
0
0
0
0
0
0
0
0
0
0
0
0
0
1.74655e-20
6.74712e-20
2.50751e-19
8.96478e-19
3.08315e-18
1.01999e-17
3.24588e-17
9.93549e-17
2.92521e-16
8.2838e-16
2.25697e-15
5.96003e-15
1.78699e-14
1.98269e-13
8.00535e-12
3.42903e-10
1.29337e-08
4.1759e-07
1.1248e-05
0.000243828
0.00402721
0.0462219
0.307291
0.735271
0.942025
0.969041
0.994786
0.997154
0.999531
0.99942
0.999289
0.999068
0.997865
0.989905
0.973349
0.907131
0.808922
0.534671
0.151032
7.03494e-10
6.05747e-10
5.01405e-10
3.98976e-10
3.05184e-10
2.24402e-10
1.58614e-10
1.0777e-10
7.0387e-11
4.41897e-11
2.66673e-11
1.5469e-11
8.62514e-12
4.6226e-12
2.38132e-12
1.17912e-12
5.61176e-13
2.56708e-13
1.12869e-13
4.76979e-14
1.93736e-14
7.56315e-15
2.83774e-15
1.02332e-15
3.54555e-16
1.16637e-16
5.49304e-17
0
0
0
0
0
0
0
0
0
0
0
0
0
0
0
0
0
0
0
0
0
0
0
0
0
0
0
0
0
0
0
0
0
0
1.51695e-20
6.10323e-20
2.36219e-19
8.79475e-19
3.14973e-18
1.08505e-17
3.59538e-17
1.1459e-16
3.51269e-16
1.03566e-15
2.93677e-15
8.00919e-15
2.10076e-14
5.30257e-14
1.30351e-13
3.86512e-13
4.90401e-12
1.98146e-10
7.98851e-09
2.77078e-07
8.00403e-06
0.000185452
0.00325305
0.0390908
0.260618
0.480256
0.719147
0.928664
0.961519
0.992116
0.99091
0.989597
0.987646
0.978149
0.917685
0.828512
0.580661
0.340197
0.155319
2.73187e-09
2.44368e-09
2.10133e-09
1.73702e-09
1.38029e-09
1.05436e-09
7.742e-10
5.46464e-10
3.70774e-10
2.41819e-10
1.51602e-10
9.13573e-11
5.29181e-11
2.94634e-11
1.57679e-11
8.11104e-12
4.01036e-12
1.90586e-12
8.70554e-13
3.82202e-13
1.61279e-13
6.54106e-14
2.54975e-14
9.55265e-15
3.4397e-15
1.19006e-15
3.91328e-16
1.84636e-16
0
0
0
0
0
0
0
0
0
0
0
0
0
0
0
0
0
0
0
0
0
0
0
0
0
0
0
0
0
0
0
0
0
1.21325e-20
5.08444e-20
2.04967e-19
7.94796e-19
2.96448e-18
1.06353e-17
3.66987e-17
1.21797e-16
3.88778e-16
1.19353e-15
3.52388e-15
1.0006e-14
2.73235e-14
7.1754e-14
1.81212e-13
4.40153e-13
1.02939e-12
2.33416e-12
5.17452e-12
1.30361e-11
1.30101e-10
4.80047e-09
1.79347e-07
5.62329e-06
0.000141408
0.00268979
0.0349743
0.250457
0.464588
0.70275
0.908949
0.902056
0.895064
0.885773
0.845377
0.595886
0.352504
0.161981
1.01815e-08
9.84271e-09
9.14718e-09
8.1719e-09
7.01807e-09
5.79386e-09
4.598e-09
3.50766e-09
2.57222e-09
1.81317e-09
1.22858e-09
8.00202e-10
5.00983e-10
3.01487e-10
1.74395e-10
9.69646e-11
5.18207e-11
2.66196e-11
1.31432e-11
6.23734e-12
2.84507e-12
1.24732e-12
5.2559e-13
2.12863e-13
8.28576e-14
3.09984e-14
1.11459e-14
3.85089e-15
1.26583e-15
5.98374e-16
0
0
0
0
0
0
0
0
0
0
0
0
0
0
0
0
0
0
0
0
0
0
0
0
0
0
0
0
0
0
0
0
0
3.90013e-20
1.6378e-19
6.61537e-19
2.57007e-18
9.60335e-18
3.45126e-17
1.19289e-16
3.96533e-16
1.26767e-15
3.89738e-15
1.15231e-14
3.27636e-14
8.95834e-14
2.35544e-13
5.95556e-13
1.44815e-12
3.38952e-12
7.68589e-12
1.69133e-11
3.58862e-11
7.32262e-11
1.44614e-10
3.26895e-10
3.19794e-09
1.12486e-07
3.83199e-06
0.000105319
0.00218748
0.0309612
0.238525
0.416385
0.410592
0.404791
0.397248
0.365243
0.168928
3.13408e-08
3.27471e-08
3.2893e-08
3.17614e-08
2.94819e-08
2.63069e-08
2.25651e-08
1.8606e-08
1.47474e-08
1.12362e-08
8.22933e-09
5.79352e-09
3.92059e-09
2.55027e-09
1.59458e-09
9.5835e-10
5.53628e-10
3.07414e-10
1.64073e-10
8.41694e-11
4.15023e-11
1.96692e-11
8.95967e-12
3.92272e-12
1.65069e-12
6.67617e-13
2.59516e-13
9.69562e-14
3.48141e-14
1.20122e-14
3.94725e-15
1.86955e-15
0
0
0
0
0
0
0
0
0
0
0
0
0
0
0
0
0
0
0
0
0
0
0
0
0
0
0
0
0
0
0
0
2.75406e-20
1.20493e-19
5.07028e-19
2.052e-18
7.98705e-18
2.98985e-17
1.07636e-16
3.7265e-16
1.24071e-15
3.97248e-15
1.2231e-14
3.62134e-14
1.03103e-13
2.82271e-13
7.43096e-13
1.88107e-12
4.579e-12
1.0727e-11
2.43304e-11
5.35202e-11
1.1349e-10
2.31382e-10
4.53558e-10
8.54795e-10
1.54885e-09
2.6982e-09
4.51907e-09
7.27663e-09
1.12646e-08
1.67647e-08
2.39867e-08
3.29941e-08
4.36303e-08
5.54655e-08
6.77855e-08
7.96389e-08
8.99469e-08
9.76596e-08
1.01932e-07
1.02274e-07
9.86453e-08
9.14626e-08
8.15195e-08
6.98437e-08
5.75223e-08
4.55393e-08
3.46556e-08
2.5351e-08
1.78256e-08
1.20482e-08
7.82748e-09
4.88812e-09
2.93411e-09
1.69287e-09
9.38814e-10
5.00426e-10
2.56391e-10
1.26259e-10
5.97605e-11
2.71867e-11
1.18874e-11
4.99573e-12
2.01785e-12
7.8335e-13
2.92276e-13
1.04809e-13
3.61165e-14
1.18648e-14
5.63079e-15
0
0
0
0
0
0
0
0
0
0
0
0
0
0
0
0
0
0
0
0
0
0
0
0
0
0
0
0
0
0
0
1.78988e-20
8.15983e-20
3.57763e-19
1.50854e-18
6.11726e-18
2.38553e-17
8.94609e-17
3.22622e-16
1.11882e-15
3.73096e-15
1.19639e-14
3.689e-14
1.09376e-13
3.11821e-13
8.54783e-13
2.25303e-12
5.70997e-12
1.39148e-11
3.26269e-11
7.40247e-11
1.62783e-10
3.44999e-10
7.02987e-10
1.37718e-09
2.59383e-09
4.69676e-09
8.17629e-09
1.3684e-08
2.20171e-08
3.40563e-08
5.06433e-08
7.23984e-08
9.94982e-08
1.31455e-07
1.6696e-07
2.03853e-07
2.39269e-07
2.69973e-07
2.92829e-07
3.05327e-07
3.06034e-07
2.94866e-07
2.73104e-07
2.43151e-07
2.08096e-07
1.71195e-07
1.3538e-07
1.02908e-07
7.51918e-08
5.28102e-08
3.56523e-08
2.31354e-08
1.44305e-08
8.65159e-09
4.98564e-09
2.76153e-09
1.47022e-09
7.52334e-10
3.70028e-10
1.74924e-10
7.94789e-11
3.47087e-11
1.45682e-11
5.87692e-12
2.2786e-12
8.49091e-13
3.04094e-13
1.04659e-13
3.43738e-14
1.63465e-14
0
0
0
0
0
0
0
0
0
0
0
0
0
0
0
0
0
0
0
0
0
0
0
0
0
0
0
0
0
0
1.07034e-20
5.08536e-20
2.32353e-19
1.02092e-18
4.31364e-18
1.75266e-17
6.8477e-17
2.57263e-16
9.29374e-16
3.22832e-15
1.07827e-14
3.46291e-14
1.06933e-13
3.1749e-13
9.06345e-13
2.4877e-12
6.56507e-12
1.66577e-11
4.06382e-11
9.53739e-11
2.16461e-10
4.75882e-10
1.00811e-09
2.05315e-09
4.02004e-09
7.56716e-09
1.36938e-08
2.38234e-08
3.98443e-08
6.40632e-08
9.90212e-08
1.47137e-07
2.10177e-07
2.88615e-07
3.80992e-07
4.83478e-07
5.8979e-07
6.91632e-07
7.79664e-07
8.44873e-07
8.80084e-07
8.81258e-07
8.48254e-07
7.84855e-07
6.98057e-07
5.96798e-07
4.90451e-07
3.87431e-07
2.94184e-07
2.14717e-07
1.50638e-07
1.01583e-07
6.58448e-08
4.10235e-08
2.4567e-08
1.41409e-08
7.82354e-09
4.16033e-09
2.12641e-09
1.04462e-09
4.93239e-10
2.23842e-10
9.76356e-11
4.0931e-11
1.64919e-11
6.38648e-12
2.37695e-12
8.50241e-13
2.92274e-13
9.59749e-14
4.57361e-14
0
0
0
0
0
0
0
0
0
0
0
0
0
0
0
0
0
0
0
0
0
0
0
0
0
0
0
0
0
0
2.91588e-20
1.38861e-19
6.35882e-19
2.79995e-18
1.18548e-17
4.82617e-17
1.88916e-16
7.11029e-16
2.57307e-15
8.95278e-15
2.99502e-14
9.63326e-14
2.97902e-13
8.85722e-13
2.53186e-12
6.95822e-12
1.83852e-11
4.67033e-11
1.14063e-10
2.67943e-10
6.08359e-10
1.33719e-09
2.83158e-09
5.76436e-09
1.12811e-08
2.12242e-08
3.83872e-08
6.67439e-08
1.1156e-07
1.79254e-07
2.76882e-07
4.11133e-07
5.86854e-07
8.05256e-07
1.06217e-06
1.3468e-06
1.64159e-06
1.92342e-06
2.16636e-06
2.34546e-06
2.441e-06
2.442e-06
2.34833e-06
2.17073e-06
1.92879e-06
1.64737e-06
1.35246e-06
1.06729e-06
8.09584e-07
5.9028e-07
4.13686e-07
2.78673e-07
1.80439e-07
1.12298e-07
6.71765e-08
3.86246e-08
2.13456e-08
1.13383e-08
5.78869e-09
2.84054e-09
1.3397e-09
6.07287e-10
2.64583e-10
1.10791e-10
4.45881e-11
1.72466e-11
6.41142e-12
2.29069e-12
7.86528e-13
2.58232e-13
1.23316e-13
0
0
0
0
0
0
0
0
0
0
0
0
0
0
0
0
0
0
0
0
0
0
0
0
0
0
0
0
0
1.53784e-20
7.63456e-20
3.64424e-19
1.67253e-18
7.38038e-18
3.13123e-17
1.27726e-16
5.00915e-16
1.88872e-15
6.84672e-15
2.38621e-14
7.99537e-14
2.57556e-13
7.97632e-13
2.37481e-12
6.79749e-12
1.8705e-11
4.94829e-11
1.25845e-10
3.07688e-10
7.23463e-10
1.6433e-09
3.61148e-09
7.64497e-09
1.55572e-08
3.04336e-08
5.72314e-08
1.03461e-07
1.79793e-07
3.00349e-07
4.82317e-07
7.44544e-07
1.10483e-06
1.57598e-06
2.16098e-06
2.84836e-06
3.60895e-06
4.39549e-06
5.14603e-06
5.79126e-06
6.26482e-06
6.51444e-06
6.51143e-06
6.25611e-06
5.77775e-06
5.12906e-06
4.37662e-06
3.58972e-06
2.83009e-06
2.14464e-06
1.56214e-06
1.0937e-06
7.36012e-07
4.76076e-07
2.95985e-07
1.76874e-07
1.01591e-07
5.60841e-08
2.97588e-08
1.51768e-08
7.4393e-09
3.50482e-09
1.58701e-09
6.90666e-10
2.88889e-10
1.16135e-10
4.48709e-11
1.66621e-11
5.9464e-12
2.03949e-12
6.69485e-13
3.2034e-13
0
0
0
0
0
0
0
0
0
0
0
0
0
0
0
0
0
0
0
0
0
0
0
0
0
0
0
0
0
3.86043e-20
1.92118e-19
9.1919e-19
4.22809e-18
1.86974e-17
7.94895e-17
3.24884e-16
1.27653e-15
4.82192e-15
1.751e-14
6.11266e-14
2.05139e-13
6.61819e-13
2.05258e-12
6.11966e-12
1.75397e-11
4.8326e-11
1.27998e-10
3.25902e-10
7.97692e-10
1.87739e-09
4.26631e-09
9.37519e-09
1.98403e-08
4.03614e-08
7.89277e-08
1.48367e-07
2.68096e-07
4.65676e-07
7.77533e-07
1.24794e-06
1.92533e-06
2.85532e-06
4.07043e-06
5.57775e-06
7.34702e-06
9.3024e-06
1.13216e-05
1.3245e-05
1.48944e-05
1.60997e-05
1.67278e-05
1.67063e-05
1.60378e-05
1.47989e-05
1.31259e-05
1.11904e-05
9.17019e-06
7.22305e-06
5.46856e-06
3.97954e-06
2.78354e-06
1.8714e-06
1.2093e-06
7.51109e-07
4.48401e-07
2.5729e-07
1.41896e-07
7.52153e-08
3.83201e-08
1.87642e-08
8.83109e-09
3.99462e-09
1.73664e-09
7.25632e-10
2.91401e-10
1.12469e-10
4.17191e-11
1.4873e-11
5.09574e-12
1.6722e-12
8.01263e-13
0
0
0
0
0
0
0
0
0
0
0
0
0
0
0
0
0
0
0
0
0
0
0
0
0
0
0
0
1.79477e-20
9.31397e-20
4.64651e-19
2.22833e-18
1.02729e-17
4.55261e-17
1.93947e-16
7.94249e-16
3.12665e-15
1.18318e-14
4.30395e-14
1.50497e-13
5.05864e-13
1.63448e-12
5.07655e-12
1.51564e-11
4.34975e-11
1.19997e-10
3.18211e-10
8.11145e-10
1.98756e-09
4.68226e-09
1.06455e-08
2.33925e-08
4.94934e-08
1.00658e-07
1.96779e-07
3.69775e-07
6.6792e-07
1.15968e-06
1.93543e-06
3.10487e-06
4.78778e-06
7.09658e-06
1.01108e-05
1.38467e-05
1.82276e-05
2.3064e-05
2.80516e-05
3.27945e-05
3.6852e-05
3.98052e-05
4.13269e-05
4.12422e-05
3.95607e-05
3.64752e-05
3.23253e-05
2.75358e-05
2.25455e-05
1.7743e-05
1.34214e-05
9.75828e-06
6.81943e-06
4.58059e-06
2.95727e-06
1.83508e-06
1.09449e-06
6.27422e-07
3.45696e-07
1.83069e-07
9.31787e-08
4.55827e-08
2.1432e-08
9.68499e-09
4.20639e-09
1.75586e-09
7.04431e-10
2.71614e-10
1.00654e-10
3.58481e-11
1.22702e-11
4.02295e-12
1.92654e-12
0
0
0
0
0
0
0
0
0
0
0
0
0
0
0
0
0
0
0
0
0
0
0
0
0
0
0
0
4.15124e-20
2.1598e-19
1.08011e-18
5.19202e-18
2.39896e-17
1.06543e-16
4.5482e-16
1.86624e-15
7.36055e-15
2.79038e-14
1.01679e-13
3.5613e-13
1.19894e-12
3.87971e-12
1.20674e-11
3.60778e-11
1.03676e-10
2.86372e-10
7.60319e-10
1.94033e-09
4.7596e-09
1.12234e-08
2.55306e-08
5.61016e-08
1.18678e-07
2.41313e-07
4.71629e-07
8.86e-07
1.59985e-06
2.77673e-06
4.63236e-06
7.42816e-06
1.14491e-05
1.69618e-05
2.41538e-05
3.30605e-05
4.34953e-05
5.5003e-05
6.6856e-05
7.81095e-05
8.77153e-05
9.46795e-05
9.82299e-05
9.79577e-05
9.38944e-05
8.65059e-05
7.66048e-05
6.52033e-05
5.3344e-05
4.19471e-05
3.17043e-05
2.30321e-05
1.60822e-05
1.07932e-05
6.96227e-06
4.31661e-06
2.57232e-06
1.47331e-06
8.11059e-07
4.29135e-07
2.18232e-07
1.06665e-07
5.0108e-08
2.26239e-08
9.81752e-09
4.09458e-09
1.64129e-09
6.32312e-10
2.34122e-10
8.3314e-11
2.84938e-11
9.31728e-12
4.43288e-12
0
0
0
0
0
0
0
0
0
0
0
0
0
0
0
0
0
0
0
0
0
0
0
0
0
0
0
1.85495e-20
1.01763e-19
5.28505e-19
2.39395e-18
1.15795e-17
5.38556e-17
2.3965e-16
1.02514e-15
4.21472e-15
1.66544e-14
6.32505e-14
2.30876e-13
8.09975e-13
2.73115e-12
8.85116e-12
2.75701e-11
8.25392e-11
2.37503e-10
6.56846e-10
1.74601e-09
4.46088e-09
1.09543e-08
2.58561e-08
5.88497e-08
1.29329e-07
2.73561e-07
5.56162e-07
1.08678e-06
2.04114e-06
3.68465e-06
6.39315e-06
1.06617e-05
1.70898e-05
2.63295e-05
3.89894e-05
5.54941e-05
7.59183e-05
9.98263e-05
0.000126166
0.000153264
0.000178953
0.000200834
0.00021664
0.000224615
0.000223841
0.000214408
0.000197398
0.00017468
0.000148575
0.000121463
9.54431e-05
7.20844e-05
5.23281e-05
3.65111e-05
2.44855e-05
1.5783e-05
9.77825e-06
5.82271e-06
3.33258e-06
1.83326e-06
9.69297e-07
4.92579e-07
2.40592e-07
1.12946e-07
5.09612e-08
2.21e-08
9.21135e-09
3.69006e-09
1.42076e-09
5.25752e-10
1.86989e-10
6.39175e-11
2.07555e-11
9.6655e-12
0
0
0
0
0
0
0
0
0
0
0
0
0
0
0
0
0
0
0
0
0
0
0
0
0
0
0
0.00319882
0.0102455
0.0161673
0.0183836
0.0166535
0.0108731
0.00350697
2.44514e-05
8.58889e-08
2.0133e-10
4.9231e-13
5.08509e-13
1.7842e-12
6.02241e-12
1.9537e-11
6.09125e-11
1.82525e-10
5.25658e-10
1.45497e-09
3.87061e-09
9.89641e-09
2.43194e-08
5.74392e-08
1.30771e-07
2.87335e-07
6.07575e-07
1.23477e-06
2.41186e-06
4.52789e-06
8.16998e-06
1.41687e-05
2.36169e-05
3.78358e-05
5.82602e-05
8.62245e-05
0.000122654
0.000167697
0.000220375
0.000278354
0.000337931
0.000394327
0.000442266
0.000476772
0.000494013
0.000492002
0.000470974
0.00043334
0.000383233
0.000325762
0.000266158
0.000209017
0.00015777
0.000114465
7.98218e-05
5.35023e-05
3.44687e-05
2.13441e-05
1.27037e-05
7.26749e-06
3.99611e-06
2.11197e-06
1.07285e-06
5.23822e-07
2.45825e-07
1.10883e-07
4.80728e-08
2.00321e-08
8.02323e-09
3.08862e-09
1.1428e-09
4.06416e-10
1.38919e-10
4.44227e-11
1.96313e-11
0
0
0
0
0
0
0
0
0
0
0
0
0
0
0
0
0
0
0
0
0
0
0
0
0
0.00664163
0.0210101
0.0392367
0.059259
0.0739442
0.0796032
0.0758109
0.0625011
0.0429367
0.0240671
0.00803324
0.000164564
1.72185e-06
1.20636e-08
6.71933e-11
1.31641e-11
4.18528e-11