# vtk DataFile Version 2.0
Structured output generated by Nextsim
ASCII
DATASET STRUCTURED_POINTS
DIMENSIONS 101 101 1
ORIGIN 0 0 0
SPACING 0.01 0.01 0.01
POINT_DATA 10201
SCALARS interpolate DOUBLE 1
LOOKUP_TABLE default
0
0
0
0
0
0
0
0
0
0
0
0
0
0
0
0
0
0
0
0
0
0
0
0
0
0
0
0
0
0
0
0
0
0
0
0
0
0
0
0
0
0
0
0
0
0
0
0
0
0
0
0
0
0
0
0
0
0
0
0
0
0
0
0
0
0
0
0
0
0
0
0
0
0
0
0
0
0
0
0
0
0
0
0
0
0
0
0
0
0
0
0
0
0
0
0
0
0
0
0
0
0
0
0
0
0
0
0
0
0
0
0
0
0
0
0
0
0
0
0
0
0
0
0
0
0
0
0
0
0
0
0
0
0
0
0
0
0
0
0
0
0
0
0
0
0
0
0
0
0
0
0
0
0
0
0
0
0
0
0
0
0
0
0
0
0
0
0
0
0
0
0
0
0
0
0
0
0
0
0
0
0
0
0
0
0
0
0
0
0
0
0
0
0
0
0
0
0
0
0
0
0
0
0
0
0
0
0
0
0
0
0
0
0
0
0
0
0
0
0
0
0
0
0
0
0
0
0
0
0
0
0
0
0
0
0
0
0
0
0
0
0
0
0
0
0
0
0
0
0
0
0
0
0
0
0
0
0
0
0
0
0
0
0
0
0
0
0
0
0
0
0
0
0
0
0
0
0
0
0
0
0
0
0
0
0
0
0
0
0
0
0
0
0
0
0
0
0
0
0
0
0
0
0
0
0
0
0
0
0
0
0
0
0
0
0
0
0
0
0
0
0
0
0
0
0
0
0
0
0
0
0
0
0
0
0
0
0
0
0
0
0
0
0
0
0
0
0
0
0
0
0
0
0
0
0
0
0
0
0
0
0
0
0
0
0
0
0
0
0
0
0
0
0
0
0
0
0
0
0
0
0
0
0
0
0
0
0
0
0
0
0
0
0
0
0
0
0
0
0
0
0
0
0
0
0
0
0
0
0
0
0
0
0
0
0
0
0
0
0
0
0
0
0
0
0
0
0
0
0
0
0
0
0
0
0
0
0
0
0
0
0
0
0
0
0
0
0
0
0
0
0
0
0
0
0
0
0
0
0
0
0
0
0
0
0
0
0
0
0
0
0
0
0
0
0
0
0
0
0
0
0
0
0
0
0
0
0
0
0
0
0
0
0
0
0
0
0
0
0
0
0
0
0
0
0
0
0
0
0
0
0
0
0
0
0
0
0
0
0
0
0
0
0
0
0
0
0
0
0
0
0
0
0
0
0
0
0
0
0
0
0
0
0
0
0
0
0
0
0
0
0
0
0
0
0
0
0
0
0
0
0
0
0
0
0
0
0
0
0
0
0
0
0
0
0
0
0
0
0
0
0
0
0
0
0
0
0
0
0
0
0
0
0
0
0
0
0
0
0
0
0
0
0
0
0
0
0
0
0
0
0
0
0
0
0
0
0
0
0
0
0
0
0
0
0
0
0
0
0
0
0
0
0
0
0
0
0
0
0
0
0
0
0
0
0
0
0
0
0
0
0
0
0
0
0
0
0
0
0
0
0
0
0
0
0
0
0
0
1.0067e-20
2.60391e-20
6.11432e-20
1.21702e-19
1.70493e-19
9.9224e-20
1.69815e-20
0
0
0
0
0
0
0
0
0
0
0
0
0
0
0
0
0
0
0
0
0
0
0
0
0
0
0
0
0
0
0
0
0
0
0
0
0
0
0
0
0
0
0
0
0
0
0
0
0
0
0
0
0
0
0
0
0
0
0
0
0
0
0
0
0
0
0
0
0
0
0
0
0
0
0
0
0
0
0
0
0
0
0
0
0
0
0
0
0
0
0
0
4.80325e-20
2.07555e-19
5.91534e-19
1.43389e-18
3.17733e-18
6.02502e-18
8.13919e-18
4.65612e-18
7.83415e-19
4.45416e-19
7.35467e-20
3.99954e-20
0
0
0
0
0
0
0
0
0
0
0
0
0
0
0
0
0
0
0
0
0
0
0
0
0
0
0
0
0
0
0
0
0
0
0
0
0
0
0
0
0
0
0
0
0
0
0
0
0
0
0
0
0
0
0
0
0
0
0
0
0
0
0
0
0
0
0
0
0
0
0
0
0
0
0
0
0
0
0
0
0
0
0
0
0
0
0
5.77754e-20
4.7606e-19
2.89183e-18
1.19867e-17
3.2191e-17
7.30773e-17
1.52693e-16
2.75636e-16
3.58883e-16
2.01791e-16
3.35313e-17
1.8776e-17
3.07493e-18
1.65002e-18
7.44018e-20
0
0
0
0
0
0
0
0
0
0
0
0
0
0
0
0
0
0
0
0
0
0
0
0
0
0
0
0
0
0
0
0
0
0
0
0
0
0
0
0
0
0
0
0
0
0
0
0
0
0
0
0
0
0
0
0
0
0
0
0
0
0
0
0
0
0
0
0
0
0
0
0
0
0
0
0
0
0
0
0
0
0
0
0
2.69972e-20
3.38711e-19
3.44661e-18
2.73718e-17
1.6025e-16
6.37398e-16
1.6137e-15
3.42843e-15
6.75006e-15
1.1591e-14
1.45382e-14
8.03474e-15
1.32551e-15
7.31032e-16
1.19269e-16
6.31492e-17
2.92852e-18
0
0
0
0
0
0
0
0
0
0
0
0
0
0
0
0
0
0
0
0
0
0
0
0
0
0
0
0
0
0
0
0
0
0
0
0
0
0
0
0
0
0
0
0
0
0
0
0
0
0
0
0
0
0
0
0
0
0
0
0
0
0
0
0
0
0
0
0
0
0
0
0
0
0
0
0
0
0
0
0
0
0
0
1.11272e-19
1.60532e-18
1.93085e-17
1.88649e-16
1.44098e-15
8.12196e-15
3.10074e-14
7.40407e-14
1.47128e-13
2.72759e-13
4.45214e-13
5.37674e-13
2.92108e-13
4.81374e-14
2.61517e-14
4.27245e-15
2.23205e-15
1.06906e-16
1.45614e-19
0
0
0
0
0
0
0
0
0
0
0
0
0
0
0
0
0
0
0
0
0
0
0
0
0
0
0
0
0
0
0
0
0
0
0
0
0
0
0
0
0
0
0
0
0
0
0
0
0
0
0
0
0
0
0
0
0
0
0
0
0
0
0
0
0
0
0
0
0
0
0
0
0
0
0
0
0
0
0
0
2.09106e-20
3.93678e-19
6.37585e-18
8.77047e-17
1.00708e-15
9.41366e-15
6.89708e-14
3.73666e-13
1.36933e-12
3.08563e-12
5.73152e-12
9.99847e-12
1.55022e-11
1.80176e-11
9.62511e-12
1.59595e-12
8.54307e-13
1.40597e-13
7.2481e-14
3.60311e-15
5.48919e-18
0
0
0
0
0
0
0
0
0
0
0
0
0
0
0
0
0
0
0
0
0
0
0
0
0
0
0
0
0
0
0
0
0
0
0
0
0
0
0
0
0
0
0
0
0
0
0
0
0
0
0
0
0
0
0
0
0
0
0
0
0
0
0
0
0
0
0
0
0
0
0
0
0
0
0
0
0
0
0
5.94103e-20
1.22407e-18
2.18714e-17
3.35791e-16
4.37917e-15
4.77483e-14
4.25031e-13
2.97614e-12
1.54632e-11
5.43824e-11
1.15714e-10
2.00807e-10
3.29424e-10
4.84832e-10
5.42068e-10
2.84883e-10
4.79427e-11
2.5298e-11
4.22381e-12
2.14905e-12
1.11525e-13
1.91916e-16
2.76869e-19
0
0
0
0
0
0
0
0
0
0
0
0
0
0
0
0
0
0
0
0
0
0
0
0
0
0
0
0
0
0
0
0
0
0
0
0
0
0
0
0
0
0
0
0
0
0
0
0
0
0
0
0
0
0
0
0
0
0
0
0
0
0
0
0
0
0
0
0
0
0
0
0
0
0
0
0
0
1.52253e-19
3.40599e-18
6.63933e-17
1.11915e-15
1.61785e-14
1.98609e-13
2.04215e-12
1.72067e-11
1.14594e-10
5.69158e-10
1.91991e-09
3.85983e-09
6.25486e-09
9.64402e-09
1.34646e-08
1.44762e-08
7.49095e-09
1.29306e-09
6.73054e-10
1.14973e-10
5.77526e-11
3.15038e-12
6.19505e-15
1.00122e-17
0
0
0
0
0
0
0
0
0
0
0
0
0
0
0
0
0
0
0
0
0
0
0
0
0
0
0
0
0
0
0
0
0
0
0
0
0
0
0
0
0
0
0
0
0
0
0
0
0
0
0
0
0
0
0
0
0
0
0
0
0
0
0
0
0
0
0
0
0
0
0
0
0
0
0
1.29221e-20
3.54546e-19
8.57364e-18
1.81247e-16
3.32451e-15
5.25155e-14
7.09172e-13
8.12281e-12
7.80655e-11
6.17688e-10
3.8874e-09
1.83716e-08
5.93739e-08
1.12852e-07
1.70698e-07
2.4724e-07
3.27268e-07
3.38258e-07
1.72583e-07
3.09595e-08
1.5913e-08
2.80991e-09
1.39419e-09
8.06101e-11
1.83658e-13
3.35795e-16
0
0
0
0
0
0
0
0
0
0
0
0
0
0
0
0
0
0
0
0
0
0
0
0
0
0
0
0
0
0
0
0
0
0
0
0
0
0
0
0
0
0
0
0
0
0
0
0
0
0
0
0
0
0
0
0
0
0
0
0
0
0
0
0
0
0
0
0
0
0
0
0
0
0
2.6218e-20
7.5139e-19
1.95702e-17
4.47444e-16
8.90122e-15
1.52822e-13
2.24667e-12
2.80896e-11
2.96986e-10
2.63748e-09
1.93926e-08
1.14328e-07
5.10659e-07
1.57799e-06
2.83708e-06
4.00426e-06
5.44611e-06
6.83155e-06
6.78756e-06
3.42213e-06
6.4869e-07
3.2978e-07
6.09667e-08
2.99039e-08
1.85139e-09
4.96918e-12
1.03978e-14
0
0
0
0
0
0
0
0
0
0
0
0
0
0
0
0
0
0
0
0
0
0
0
0
0
0
0
0
0
0
0
0
0
0
0
0
0
0
0
0
0
0
0
0
0
0
0
0
0
0
0
0
0
0
0
0
0
0
0
0
0
0
0
0
0
0
0
0
0
0
0
0
0
5.07458e-20
1.48088e-18
4.0326e-17
9.94062e-16
2.14216e-14
3.99586e-13
6.39157e-12
8.68804e-11
9.96349e-10
9.60242e-09
7.7656e-08
5.23154e-07
2.85458e-06
1.19299e-05
3.51228e-05
5.97546e-05
7.86809e-05
0.000100461
0.000119385
0.000114053
5.70327e-05
1.16757e-05
5.88574e-06
1.15775e-06
5.62091e-07
3.77406e-08
1.21792e-10
2.95682e-13
0
0
0
0
0
0
0
0
0
0
0
0
0
0
0
0
0
0
0
0
0
0
0
0
0
0
0
0
0
0
0
0
0
0
0
0
0
0
0
0
0
0
0
0
0
0
0
0
0
0
0
0
0
0
0
0
0
0
0
0
0
0
0
0
0
0
0
0
0
0
0
0
9.19521e-20
2.74e-18
7.612e-17
1.96438e-15
4.56993e-14
9.25725e-13
1.61463e-11
2.39771e-10
2.99725e-09
3.12476e-08
2.70696e-07
1.95678e-06
1.18475e-05
5.88277e-05
0.000226455
0.000631163
0.00101606
0.00124823
0.00149622
0.0016845
0.00154874
0.00077306
0.000176074
8.83722e-05
1.88904e-05
9.0961e-06
6.73232e-07
2.67958e-09
7.67366e-12
0
0
0
0
0
0
0
0
0
0
0
0
0
0
0
0
0
0
0
0
0
0
0
0
0
0
0
0
0
0
0
0
0
0
0
0
0
0
0
0
0
0
0
0
0
0
0
0
0
0
0
0
0
0
0
0
0
0
0
0
0
0
0
0
0
0
0
0
0
0
0
1.51712e-19
4.63093e-18
1.31688e-16
3.4755e-15
8.47601e-14
1.85548e-12
3.52469e-11
5.7365e-10
7.8903e-09
9.03651e-08
8.50043e-07
6.52353e-06
4.11824e-05
0.000218111
0.000961683
0.00332311
0.00866115
0.0131802
0.0151157
0.0170194
0.0181655
0.0161105
0.00812389
0.00214798
0.00108084
0.000258352
0.000123782
1.03182e-05
5.23308e-08
1.80391e-10
0
0
0
0
0
0
0
0
0
0
0
0
0
0
0
0
0
0
0
0
0
0
0
0
0
0
0
0
0
0
0
0
0
0
0
0
0
0
0
0
0
0
0
0
0
0
0
0
0
0
0
0
0
0
0
0
0
0
0
0
0
0
0
0
0
0
0
0
0
0
2.19417e-19
6.88281e-18
2.01024e-16
5.44544e-15
1.36199e-13
3.12888e-12
6.42395e-11
1.14153e-09
1.73059e-08
2.2017e-07
2.30537e-06
1.94631e-05
0.000130508
0.000699335
0.00311503
0.0117523
0.034825
0.0826374
0.118448
0.127067
0.134656
0.136589
0.117548
0.0614199
0.0201143
0.0102769
0.00286048
0.00137128
0.00013258
8.9445e-07
3.80631e-09
0
0
0
0
0
0
0
0
0
0
0
0
0
0
0
0
0
0
0
0
0
0
0
0
0
0
0
0
0
0
0
0
0
0
0
0
0
0
0
0
0
0
0
0
0
0
0
0
0
0
0
0
0
0
0
0
0
0
0
0
0
0
0
0
0
0
0
0
0
2.63849e-19
8.53088e-18
2.56722e-16
7.16227e-15
1.84403e-13
4.35798e-12
9.39378e-11
1.80166e-09
2.98598e-08
4.20829e-07
4.94586e-06
4.72911e-05
0.000357127
0.00206738
0.0090903
0.0320627
0.0974941
0.226471
0.455046
0.606181
0.612678
0.615523
0.59859
0.509308
0.294356
0.132729
0.0706893
0.0243482
0.0117989
0.00138023
1.31381e-05
7.12827e-08
0
0
0
0
0
0
0
0
0
0
0
0
0
0
0
0
0
0
0
0
0
0
0
0
0
0
0
0
0
0
0
0
0
0
0
0
0
0
0
0
0
0
0
0
0
0
0
0
0
0
0
0
0
0
0
0
0
0
0
0
0
0
0
0
0
0
0
0
2.43366e-19
8.13285e-18
2.5292e-16
7.29049e-15
1.93889e-13
4.73173e-12
1.05284e-10
2.11946e-09
3.77902e-08
5.81881e-07
7.60032e-06
8.23152e-05
0.000717153
0.00482724
0.0238592
0.0827228
0.209265
0.460493
0.694754
0.880472
0.999954
0.99955
0.996447
0.978215
0.903342
0.72093
0.527137
0.312313
0.14655
0.0733351
0.0110709
0.000161842
1.16812e-06
1.2047e-20
1.00503e-20
0
0
0
0
0
0
0
0
0
0
0
0
0
0
0
0
0
0
0
0
0
0
0
0
0
0
0
0
0
0
0
0
0
0
0
0
0
0
0
0
0
0
0
0
0
0
0
0
0
0
0
0
0
0
0
0
0
0
0
0
0
0
0
0
0
1.49016e-19
5.16174e-18
1.66392e-16
4.97188e-15
1.37075e-13
3.4681e-12
8.00095e-11
1.67018e-09
3.12529e-08
5.15377e-07
7.33594e-06
8.83375e-05
0.000876307
0.00690334
0.0409807
0.169748
0.44114
0.68011
0.873846
1
1
1
0.999997
0.999962
0.999618
0.996881
0.980257
0.909715
0.73228
0.536193
0.292206
0.0632069
0.00161625
1.64447e-05
7.40646e-20
6.15718e-20
4.92147e-20
3.78176e-20
2.79363e-20
1.98386e-20
1.35429e-20
0
0
0
0
0
0
0
0
0
0
0
0
0
0
0
0
0
0
0
0
0
0
0
0
0
0
0
0
0
0
0
0
0
0
0
0
0
0
0
0
0
0
0
0
0
0
0
0
0
0
0
0
0
0
0
0
0
0
0
4.33088e-20
1.56227e-18
5.24703e-17
1.63442e-15
4.70068e-14
1.24172e-12
2.99406e-11
6.54124e-10
1.28331e-08
2.23605e-07
3.41189e-06
4.47664e-05
0.000493148
0.00441419
0.030628
0.153324
0.493506
0.866848
1
1
1
1
1
1
1
0.999997
0.999965
0.999633
0.9968
0.978072
0.888883
0.620374
0.224683
0.0124502
0.000194042
4.39214e-19
3.63993e-19
2.90027e-19
2.22163e-19
1.636e-19
1.15814e-19
7.8814e-20
5.15579e-20
3.24213e-20
1.95975e-20
1.13867e-20
0
0
0
0
0
0
0
0
0
0
0
0
0
0
0
0
0
0
0
0
0
0
0
0
0
0
0
0
0
0
0
0
0
0
0
0
0
0
0
0
0
0
0
0
0
0
0
0
0
0
0
0
0
0
0
8.06801e-20
2.9493e-18
1.00375e-16
3.16786e-15
9.22895e-14
2.46856e-12
6.02377e-11
1.33076e-09
2.63689e-08
4.63255e-07
7.08423e-06
9.21187e-05
0.000992021
0.00853225
0.0556024
0.253111
0.705135
1
1
1
1
1
1
1
1
1
0.999996
0.999944
0.999378
0.994443
0.961596
0.81004
0.410035
0.0684321
0.00185404
2.50925e-18
2.07613e-18
1.64923e-18
1.2595e-18
9.24686e-19
6.5262e-19
4.42781e-19
2.88782e-19
1.81049e-19
1.09109e-19
6.32054e-20
3.5194e-20
1.88364e-20
0
0
0
0
0
0
0
0
0
0
0
0
0
0
0
0
0
0
0
0
0
0
0
0
0
0
0
0
0
0
0
0
0
0
0
0
0
0
0
0
0
0
0
0
0
0
0
0
0
0
0
0
1.24751e-20
4.86382e-19
1.76555e-17
5.94377e-16
1.84744e-14
5.27372e-13
1.37407e-11
3.24355e-10
6.87467e-09
1.29389e-07
2.13265e-06
3.02293e-05
0.000359638
0.00347371
0.025961
0.139395
0.476037
0.859461
1
1
1
1
1
1
1
1
1
0.999998
0.999976
0.99973
0.997471
0.98144
0.899723
0.638112
0.235739
0.0136293
1.38557e-17
1.14239e-17
9.0484e-18
6.89e-18
5.04367e-18
3.54932e-18
2.40109e-18
1.56144e-18
9.76086e-19
5.8653e-19
3.38785e-19
1.88096e-19
1.00382e-19
5.14916e-20
2.53875e-20
1.20309e-20
0
0
0
0
0
0
0
0
0
0
0
0
0
0
0
0
0
0
0
0
0
0
0
0
0
0
0
0
0
0
0
0
0
0
0
0
0
0
0
0
0
0
0
0
0
0
0
0
0
2.19442e-20
8.67873e-19
3.19587e-17
1.09143e-15
3.44095e-14
9.96112e-13
2.63097e-11
6.29189e-10
1.34978e-08
2.56772e-07
4.26853e-06
6.05728e-05
0.000711547
0.0066683
0.047246
0.232654
0.691422
1
1
1
1
1
1
1
1
1
1
1
0.999997
0.999962
0.999544
0.995595
0.967195
0.825858
0.425681
0.0710034
7.36126e-17
6.0634e-17
4.78909e-17
3.63646e-17
2.65451e-17
1.86278e-17
1.25662e-17
8.1489e-18
5.07976e-18
3.04388e-18
1.75325e-18
9.70701e-19
5.16589e-19
2.6425e-19
1.29924e-19
6.13989e-20
2.78884e-20
1.2175e-20
0
0
0
0
0
0
0
0
0
0
0
0
0
0
0
0
0
0
0
0
0
0
0
0
0
0
0
0
0
0
0
0
0
0
0
0
0
0
0
0
0
0
0
0
0
0
0
1.3626e-19
5.38236e-18
1.97166e-16
6.66762e-15
2.0706e-13
5.86802e-12
1.50633e-10
3.47092e-09
7.09945e-08
1.27104e-06
1.95601e-05
0.000252649
0.00265013
0.0215017
0.125019
0.457597
0.851664
1
1
1
1
1
1
1
1
1
1
1
0.999999
0.999984
0.999805
0.998026
0.984357
0.909022
0.649333
0.226461
3.77931e-16
3.10394e-16
2.44498e-16
1.8515e-16
1.34788e-16
9.43306e-17
6.34624e-17
4.10427e-17
2.55155e-17
1.5248e-17
8.75899e-18
4.8364e-18
2.5669e-18
1.30951e-18
6.42115e-19
3.02633e-19
1.37092e-19
5.96889e-20
2.49778e-20
1.00459e-20
0
0
0
0
0
0
0
0
0
0
0
0
0
0
0
0
0
0
0
0
0
0
0
0
0
0
0
0
0
0
0
0
0
0
0
0
0
0
0
0
0
0
0
0
0
1.9595e-19
7.81932e-18
2.89424e-16
9.89059e-15
3.10392e-13
8.88902e-12
2.30546e-10
5.36562e-09
1.10784e-07
2.00011e-06
3.09868e-05
0.000401999
0.00421997
0.034019
0.193405
0.663233
1
1
1
1
1
1
1
1
1
1
1
1
1
0.999998
0.99997
0.99961
0.995872
0.966483
0.808097
0.337848
1.87476e-15
1.53234e-15
1.20389e-15
9.09291e-16
6.60235e-16
4.60856e-16
3.0924e-16
1.99471e-16
1.23684e-16
7.37205e-17
4.22373e-17
2.32611e-17
1.23136e-17
6.26547e-18
3.06428e-18
1.44046e-18
6.50834e-19
2.82635e-19
1.17968e-19
4.73233e-20
1.82455e-20
0
0
0
0
0
0
0
0
0
0
0
0
0
0
0
0
0
0
0
0
0
0
0
0
0
0
0
0
0
0
0
0
0
0
0
0
0
0
0
0
0
0
0
0
1.05376e-19
4.35685e-18
1.67353e-16
5.93979e-15
1.93754e-13
5.77209e-12
1.55864e-10
3.78013e-09
8.14119e-08
1.53483e-06
2.48618e-05
0.000337437
0.00370431
0.0311993
0.184926
0.657116
0.999999
1
1
1
1
1
1
1
1
1
1
1
1
0.999999
0.999976
0.999672
0.99637
0.969212
0.816323
0.343787
8.94873e-15
7.29448e-15
5.7166e-15
4.30691e-15
3.1194e-15
2.17194e-15
1.45373e-15
9.35357e-16
5.78519e-16
3.43952e-16
1.96568e-16
1.07983e-16
5.70185e-17
2.89395e-17
1.4118e-17
6.61999e-18
2.98357e-18
1.29242e-18
5.38086e-19
2.15317e-19
8.28083e-20
3.06064e-20
1.08568e-20
0
0
0
0
0
0
0
0
0
0
0
0
0
0
0
0
0
0
0
0
0
0
0
0
0
0
0
0
0
0
0
0
0
0
0
0
0
0
0
0
0
0
5.25139e-20
2.25463e-18
9.07117e-17
3.37509e-15
1.15438e-13
3.6065e-12
1.02142e-10
2.59843e-09
5.87021e-08
1.16086e-06
1.97223e-05
0.000280686
0.0032295
0.028482
0.176397
0.650855
0.999972
1
1
1
1
1
1
1
1
1
1
1
1
0.999999
0.99998
0.999717
0.996737
0.971239
0.822422
0.348185
4.11697e-14
3.34798e-14
2.61747e-14
1.96727e-14
1.42142e-14
9.87295e-15
6.59224e-15
4.2313e-15
2.61072e-15
1.54842e-15
8.82771e-16
4.83766e-16
2.54825e-16
1.29022e-16
6.27902e-17
2.93712e-17
1.32053e-17
5.70639e-18
2.37006e-18
9.46095e-19
3.62979e-19
1.33837e-19
4.73677e-20
1.57177e-20
0
0
0
0
0
0
0
0
0
0
0
0
0
0
0
0
0
0
0
0
0
0
0
0
0
0
0
0
0
0
0
0
0
0
0
0
0
0
0
0
0
2.7285e-20
1.13221e-18
4.75936e-17
1.86075e-15
6.6908e-14
2.1978e-12
6.5449e-11
1.75071e-09
4.15874e-08
8.64696e-07
1.54439e-05
0.000230999
0.00279191
0.0258402
0.167586
0.643456
0.999134
0.999999
1
1
1
1
1
1
1
1
1
1
1
0.999999
0.999979
0.999692
0.996447
0.969028
0.813722
0.341428
1.82586e-13
1.48141e-13
1.15551e-13
8.66461e-14
6.24596e-14
4.32828e-14
2.8833e-14
1.84637e-14
1.13656e-14
6.72517e-15
3.82514e-15
2.09131e-15
1.09903e-15
5.55152e-16
2.6954e-16
1.25787e-16
5.64214e-17
2.43244e-17
1.00792e-17
4.01407e-18
1.53645e-18
5.65198e-19
1.99597e-19
6.61753e-20
3.06622e-20
0
0
0
0
0
0
0
0
0
0
0
0
0
0
0
0
0
0
0
0
0
0
0
0
0
0
0
0
0
0
0
0
0
0
0
0
0
0
0
0
2.28536e-20
5.73811e-19
2.40525e-17
9.86556e-16
3.7347e-14
1.29175e-12
4.05002e-11
1.14033e-09
2.85027e-08
6.23254e-07
1.1697e-05
0.00018369
0.00232945
0.0226023
0.153459
0.614805
0.981744
0.999953
1
1
1
1
1
1
1
1
1
1
1
0.999997
0.999952
0.999354
0.993148
0.947348
0.737584
0.283985
7.80514e-13
6.31874e-13
4.91773e-13
3.67939e-13
2.64642e-13
1.8298e-13
1.21621e-13
7.7707e-14
4.77263e-14
2.81768e-14
1.59904e-14
8.72266e-15
4.57361e-15
2.30506e-15
1.11664e-15
5.19928e-16
2.32686e-16
1.00089e-16
4.13796e-17
1.64424e-17
6.27941e-18
2.30476e-18
8.12186e-19
2.69067e-19
1.24916e-19
0
0
0
0
0
0
0
0
0
0
0
0
0
0
0
0
0
0
0
0
0
0
0
0
0
0
0
0
0
0
0
0
0
0
0
0
0
0
0
1.5284e-20
5.33274e-20
3.33632e-19
8.6272e-18
3.4819e-16
1.35574e-14
4.83601e-13
1.56358e-11
4.53993e-10
1.17066e-08
2.64353e-07
5.13425e-06
8.36731e-05
0.00110558
0.0112667
0.0817917
0.367964
0.795168
0.998753
0.999997
1
1
1
1
1
1
1
1
1
0.999999
0.999988
0.999838
0.998056
0.981314
0.875457
0.509741
0.117392
3.21568e-12
2.59778e-12
2.0175e-12
1.50626e-12
1.08107e-12
7.45875e-13
4.94691e-13
3.15392e-13
1.9329e-13
1.13869e-13
6.44804e-14
3.50974e-14
1.83629e-14
9.23461e-15
4.46377e-15
2.07389e-15
9.26118e-16
3.97498e-16
1.63979e-16
6.50161e-17
2.47757e-17
9.07379e-18
3.19099e-18
1.05638e-18
4.91425e-19
0
0
0
0
0
0
0
0
0
0
0
0
0
0
0
0
0
0
0
0
0
0
0
0
0
0
0
0
0
0
0
0
0
0
0
0
0
0
1.82886e-20
6.22697e-20
2.0421e-19
6.51921e-19
2.32345e-18
2.06176e-17
5.70514e-16
1.91238e-14
6.0968e-13
1.81552e-11
5.05562e-10
1.31286e-08
3.1388e-07
6.60185e-06
0.000116276
0.00165232
0.017932
0.135584
0.596897
0.977627
0.999919
0.999988
0.999993
0.999999
0.999999
1
1
1
1
0.999998
0.999987
0.999925
0.999381
0.994573
0.955772
0.758174
0.29753
1.52243e-11
1.27674e-11
1.02932e-11
7.97771e-12
5.94396e-12
4.25733e-12
2.93127e-12
1.94011e-12
1.23436e-12
7.54917e-13
4.43802e-13
2.50788e-13
1.36222e-13
7.11217e-14
3.56918e-14
1.72163e-14
7.98202e-15
3.55696e-15
1.52347e-15
6.27152e-16
2.48137e-16
9.43587e-17
3.44851e-17
1.21033e-17
4.00418e-18
1.86665e-18
0
0
0
0
0
0
0
0
0
0
0
0
0
0
0
0
0
0
0
0
0
0
0
0
0
0
0
0
0
0
0
0
0
0
0
0
0
2.02424e-20
7.17632e-20
2.44844e-19
8.03918e-19
2.5407e-18
7.75995e-18
2.4446e-17
1.49315e-16
3.86057e-15
1.46789e-13
5.29909e-12
1.72981e-10
5.02662e-09
1.28015e-07
2.80188e-06
5.1387e-05
0.000762968
0.0087137
0.0704965
0.348272
0.784043
0.998128
0.999707
0.999835
0.999974
0.999985
0.999997
0.999996
0.999995
0.999991
0.999968
0.999829
0.999332
0.99654
0.98224
0.889215
0.527942
0.123904
5.83585e-11
4.88463e-11
3.93041e-11
3.0403e-11
2.2608e-11
1.6161e-11
1.11053e-11
7.33566e-12
4.65791e-12
2.84302e-12
1.66801e-12
9.40688e-13
5.09931e-13
2.657e-13
1.3307e-13
6.40583e-14
2.96393e-14
1.31811e-14
5.63413e-15
2.31464e-15
9.13944e-16
3.46839e-16
1.26502e-16
4.4313e-17
1.46515e-17
6.84503e-18
0
0
0
0
0
0
0
0
0
0
0
0
0
0
0
0
0
0
0
0
0
0
0
0
0
0
0
0
0
0
0
0
0
0
0
0
2.06295e-20
7.61645e-20
2.70611e-19
9.25226e-19
3.04398e-18
9.63633e-18
2.93532e-17
8.60827e-17
2.45263e-16
7.68606e-16
5.92663e-15
1.55003e-13
5.13532e-12
1.66608e-10
5.14508e-09
1.43673e-07
3.44614e-06
6.91249e-05
0.00111777
0.0137783
0.117792
0.577928
0.970079
0.994419
0.996945
0.99947
0.999704
0.999943
0.999925
0.999901
0.999852
0.999583
0.998072
0.994086
0.977808
0.938014
0.767599
0.311704
2.47999e-10
2.15524e-10
1.80062e-10
1.44618e-10
1.11658e-10
8.28744e-11
5.91299e-11
4.0555e-11
2.67379e-11
1.69453e-11
1.0323e-11
6.0449e-12
3.40249e-12
1.84087e-12
9.57328e-13
4.78527e-13
2.29908e-13
1.06169e-13
4.71234e-14
2.0103e-14
8.24267e-15
3.24827e-15
1.23029e-15
4.47844e-16
1.56586e-16
5.17454e-17
2.4229e-17
0
0
0
0
0
0
0
0
0
0
0
0
0
0
0
0
0
0
0
0
0
0
0
0
0
0
0
0
0
0
0
0
0
0
0
1.93535e-20
7.44232e-20
2.75401e-19
9.80648e-19
3.35994e-18
1.10766e-17
3.51333e-17
1.07215e-16
3.14779e-16
8.89375e-16
2.43201e-15
7.11933e-15
5.26431e-14
1.56986e-12
5.75592e-11
1.91765e-09
5.59799e-08
1.40244e-06
2.94038e-05
0.000498052
0.00646445
0.058953
0.321099
0.730328
0.927175
0.960804
0.991691
0.99544
0.999024
0.998795
0.998522
0.998033
0.995621
0.982778
0.957299
0.874721
0.756198
0.48355
0.130777
8.83877e-10
7.66792e-10
6.39496e-10
5.12704e-10
3.95147e-10
2.92758e-10
2.08502e-10
1.42744e-10
9.39395e-11
5.94256e-11
3.61352e-11
2.11209e-11
1.18663e-11
6.40815e-12
3.3263e-12
1.65957e-12
7.95846e-13
3.66824e-13
1.62509e-13
6.91966e-14
2.83186e-14
1.11387e-14
4.21086e-15
1.52992e-15
5.33961e-16
1.76368e-16
8.27728e-17
0
0
0
0
0
0
0
0
0
0
0
0
0
0
0
0
0
0
0
0
0
0
0
0
0
0
0
0
0
0
0
0
0
0
1.67097e-20
6.69374e-20
2.58021e-19
9.56988e-19
3.41514e-18
1.17259e-17
3.87346e-17
1.23099e-16
3.76359e-16
1.10694e-15
3.13189e-15
8.52422e-15
2.23301e-14
5.67794e-14
1.58074e-13
1.12797e-12
3.12314e-11
1.09603e-09
3.43476e-08
9.23308e-07
2.07201e-05
0.000374058
0.00513385
0.0486684
0.262663
0.475464
0.710046
0.910224
0.950919
0.987164
0.985224
0.983092
0.979739
0.964862
0.889152
0.781276
0.537036
0.304378
0.13557
3.36796e-09
3.03426e-09
2.62793e-09
2.18798e-09
1.7512e-09
1.34737e-09
9.96525e-10
7.08498e-10
4.84207e-10
3.18098e-10
2.00874e-10
1.21931e-10
7.11418e-11
3.98983e-11
2.15078e-11
1.11441e-11
5.55008e-12
2.65675e-12
1.22235e-12
5.40541e-13
2.29745e-13
9.38521e-14
3.68482e-14
1.39047e-14
5.04274e-15
1.75691e-15
5.80065e-16
2.72882e-16
0
0
0
0
0
0
0
0
0
0
0
0
0
0
0
0
0
0
0
0
0
0
0
0
0
0
0
0
0
0
0
0
0
1.32741e-20
5.54021e-20
2.22488e-19
8.59667e-19
3.19579e-18
1.14298e-17
3.9327e-17
1.30174e-16
4.14503e-16
1.26965e-15
3.74095e-15
1.06025e-14
2.89038e-14
7.57894e-14
1.91152e-13
4.63876e-13
1.08538e-12
2.47203e-12
5.79833e-12
2.69331e-11
6.20987e-10
2.0399e-08
5.94242e-07
1.44747e-05
0.000283501
0.00421657
0.0431999
0.249748
0.45589
0.689148
0.883114
0.874332
0.865349
0.852776
0.802457
0.555634
0.318666
0.143091
1.22467e-08
1.19199e-08
1.11532e-08
1.00324e-08
8.67506e-09
7.21114e-09
5.76226e-09
4.42623e-09
3.26831e-09
2.31982e-09
1.58279e-09
1.03807e-09
6.54421e-10
3.96562e-10
2.30985e-10
1.29322e-10
6.95935e-11
3.59973e-11
1.78967e-11
8.55207e-12
3.92791e-12
1.73395e-12
7.35694e-13
3.00009e-13
1.17583e-13
4.42921e-14
1.6035e-14
5.57726e-15
1.84071e-15
8.68048e-16
0
0
0
0
0
0
0
0
0
0
0
0
0
0
0
0
0
0
0
0
0
0
0
0
0
0
0
0
0
0
0
0
0
4.21856e-20
1.76528e-19
7.10686e-19
2.75258e-18
1.02562e-17
3.67623e-17
1.26758e-16
4.20427e-16
1.34133e-15
4.11626e-15
1.215e-14
3.44944e-14
9.41903e-14
2.47367e-13
6.24819e-13
1.51816e-12
3.55344e-12
8.07599e-12
1.78542e-11
3.8088e-11
7.82713e-11
1.61317e-10
6.01075e-10
1.20521e-08
3.68844e-07
9.80272e-06
0.000209751
0.00340277
0.0378612
0.233951
0.395029
0.387973
0.380873
0.371209
0.333603
0.15103
3.68433e-08
3.87453e-08
3.91705e-08
3.80692e-08
3.5568e-08
3.19455e-08
2.75817e-08
2.28922e-08
1.82644e-08
1.40078e-08
1.03271e-08
7.31849e-09
4.98539e-09
3.26441e-09
2.05463e-09
1.24304e-09
7.22851e-10
4.0404e-10
2.17073e-10
1.12096e-10
5.5638e-11
2.65428e-11
1.21706e-11
5.36364e-12
2.2719e-12
9.249e-13
3.61887e-13
1.36088e-13
4.91842e-14
1.70793e-14
5.63503e-15
2.66405e-15
0
0
0
0
0
0
0
0
0
0
0
0
0
0
0
0
0
0
0
0
0
0
0
0
0
0
0
0
0
0
0
0
2.95435e-20
1.28842e-19
5.40552e-19
2.18165e-18
8.47011e-18
3.16325e-17
1.13634e-16
3.92644e-16
1.30496e-15
4.17146e-15
1.28252e-14
3.79239e-14
1.07852e-13
2.94983e-13
7.75914e-13
1.9628e-12
4.77569e-12
1.11899e-11
2.54381e-11
5.62094e-11
1.19812e-10
2.45565e-10
4.83951e-10
9.17057e-10
1.67088e-09
2.92711e-09
4.93029e-09
7.98436e-09
1.24318e-08
1.86102e-08
2.67845e-08
3.70618e-08
4.93031e-08
6.30553e-08
7.75289e-08
9.16422e-08
1.04139e-07
1.13765e-07
1.19477e-07
1.20622e-07
1.17068e-07
1.09223e-07
9.79588e-08
8.44555e-08
6.99942e-08
5.57623e-08
4.27031e-08
3.14351e-08
2.22435e-08
1.51293e-08
9.89142e-09
6.2161e-09
3.75485e-09
2.18011e-09
1.21667e-09
6.52631e-10
3.36483e-10
1.66745e-10
7.94204e-11
3.63579e-11
1.59974e-11
6.76512e-12
2.74965e-12
1.07411e-12
4.03262e-13
1.45508e-13
5.04483e-14
1.66401e-14
7.88707e-15
0
0
0
0
0
0
0
0
0
0
0
0
0
0
0
0
0
0
0
0
0
0
0
0
0
0
0
0
0
0
0
1.90232e-20
8.64793e-20
3.78171e-19
1.59074e-18
6.43629e-18
2.50485e-17
9.37618e-17
3.37566e-16
1.16888e-15
3.89267e-15
1.24676e-14
3.84033e-14
1.13761e-13
3.24078e-13
8.8783e-13
2.33898e-12
5.92565e-12
1.44377e-11
3.38656e-11
7.70119e-11
1.70097e-10
3.62326e-10
7.4209e-10
1.46137e-09
2.76697e-09
5.03714e-09
8.81642e-09
1.48362e-08
2.40033e-08
3.73362e-08
5.58337e-08
8.02722e-08
1.10951e-07
1.47431e-07
1.88336e-07
2.31292e-07
2.73067e-07
3.09921e-07
3.38145e-07
3.54667e-07
3.57603e-07
3.46609e-07
3.22948e-07
2.89252e-07
2.49038e-07
2.06109e-07
1.6397e-07
1.25392e-07
9.21731e-08
6.51277e-08
4.42333e-08
2.8877e-08
1.81205e-08
1.09295e-08
6.33628e-09
3.5308e-09
1.89109e-09
9.73523e-10
4.81695e-10
2.29079e-10
1.04709e-10
4.60001e-11
1.94228e-11
7.882e-12
3.07418e-12
1.15236e-12
4.1515e-13
1.43716e-13
4.73931e-14
2.25223e-14
0
0
0
0
0
0
0
0
0
0
0
0
0
0
0
0
0
0
0
0
0
0
0
0
0
0
0
0
0
0
1.12589e-20
5.33633e-20
2.43278e-19
1.06675e-18
4.49892e-18
1.82487e-17
7.11903e-17
2.67096e-16
9.6374e-16
3.34418e-15
1.11596e-14
3.58121e-14
1.10515e-13
3.27961e-13
9.35878e-13
2.56808e-12
6.77615e-12
1.71925e-11
4.19475e-11
9.8503e-11
2.24086e-10
4.94769e-10
1.0533e-09
2.15593e-09
4.2427e-09
8.02735e-09
1.46022e-08
2.55372e-08
4.29372e-08
6.94057e-08
1.07858e-07
1.6114e-07
2.31441e-07
3.19566e-07
4.2419e-07
5.41297e-07
6.64022e-07
7.83063e-07
8.87717e-07
9.67414e-07
1.01346e-06
1.0206e-06
9.87987e-07
9.19377e-07
8.22391e-07
7.07134e-07
5.84468e-07
4.64355e-07
3.54624e-07
2.60322e-07
1.83685e-07
1.24582e-07
8.12175e-08
5.08925e-08
3.06524e-08
1.77451e-08
9.87398e-09
5.28081e-09
2.71457e-09
1.34119e-09
6.36889e-10
2.90682e-10
1.27511e-10
5.37593e-11
2.17835e-11
8.48339e-12
3.17521e-12
1.14218e-12
3.94817e-13
1.30174e-13
6.20253e-14
0
0
0
0
0
0
0
0
0
0
0
0
0
0
0
0
0
0
0
0
0
0
0
0
0
0
0
0
0
0
3.02626e-20
1.43861e-19
6.57714e-19
2.89189e-18
1.22283e-17
4.97255e-17
1.94453e-16
7.31243e-16
2.64432e-15
9.19527e-15
3.07472e-14
9.88619e-14
3.05654e-13
9.08661e-13
2.5974e-12
7.13897e-12
1.88663e-11
4.7939e-11
1.17128e-10
2.75358e-10
6.2669e-10
1.38333e-09
2.94344e-09
6.02138e-09
1.18425e-08
2.23919e-08
4.07038e-08
7.1133e-08
1.19508e-07
1.93021e-07
2.99704e-07
4.4736e-07
6.41942e-07
8.85529e-07
1.17429e-06
1.49697e-06
1.83446e-06
2.16102e-06
2.44717e-06
2.6639e-06
2.78752e-06
2.8039e-06
2.71111e-06
2.51982e-06
2.25126e-06
1.93335e-06
1.59597e-06
1.26638e-06
9.65885e-07
7.08116e-07
4.98997e-07
3.3799e-07
2.20048e-07
1.37701e-07
8.28241e-08
4.78824e-08
2.66066e-08
1.42101e-08
7.29441e-09
3.59889e-09
1.70659e-09
7.77799e-10
3.40706e-10
1.43438e-10
5.80382e-11
2.25698e-11
8.43537e-12
3.02995e-12
1.04588e-12
3.4477e-13
1.64697e-13
0
0
0
0
0
0
0
0
0
0
0
0
0
0
0
0
0
0
0
0
0
0
0
0
0
0
0
0
0
1.5767e-20
7.81736e-20
3.72724e-19
1.70892e-18
7.5345e-18
3.19431e-17
1.30221e-16
5.10463e-16
1.92404e-15
6.97313e-15
2.42995e-14
8.14177e-14
2.62292e-13
8.12444e-13
2.41957e-12
6.92808e-12
1.90729e-11
5.04826e-11
1.28466e-10
3.14317e-10
7.39787e-10
1.68451e-09
3.71758e-09
7.90689e-09
1.61674e-08
3.17802e-08
6.00558e-08
1.09101e-07
1.90537e-07
3.19889e-07
5.1628e-07
8.01005e-07
1.19467e-06
1.71284e-06
2.3607e-06
3.12765e-06
3.98332e-06
4.87663e-06
5.73902e-06
6.4923e-06
7.05989e-06
7.37961e-06
7.41487e-06
7.1615e-06
6.64865e-06
5.93319e-06
5.0894e-06
4.19629e-06
3.32568e-06
2.53344e-06
1.85504e-06
1.30559e-06
8.83207e-07
5.74279e-07
3.58908e-07
2.15596e-07
1.24478e-07
6.90771e-08
3.68438e-08
1.88877e-08
9.30625e-09
4.40706e-09
2.00585e-09
8.77444e-10
3.689e-10
1.49061e-10
5.78871e-11
2.16052e-11
7.74978e-12
2.67145e-12
8.80371e-13
4.21447e-13
0
0
0
0
0
0
0
0
0
0
0
0
0
0
0
0
0
0
0
0
0
0
0
0
0
0
0
0
0
3.90211e-20
1.94072e-19
9.28081e-19
4.26739e-18
1.88662e-17
8.01953e-17
3.27754e-16
1.28788e-15
4.86553e-15
1.76727e-14
6.17154e-14
2.07203e-13
6.68812e-13
2.07548e-12
6.19202e-12
1.77601e-11
4.89724e-11
1.29823e-10
3.30856e-10
8.10634e-10
1.91019e-09
4.3519e-09
9.60308e-09
2.04175e-08
4.17311e-08
8.19936e-08
1.54867e-07
2.81189e-07
4.90784e-07
8.23445e-07
1.3281e-06
2.05907e-06
3.06873e-06
4.39632e-06
6.05426e-06
8.0144e-06
1.01981e-05
1.24738e-05
1.46661e-05
1.65752e-05
1.80066e-05
1.88031e-05
1.88735e-05
1.82095e-05
1.68874e-05
1.50537e-05
1.28986e-05
1.06231e-05
8.40951e-06
6.3988e-06
4.67985e-06
3.28979e-06
2.22282e-06
1.44357e-06
9.01091e-07
5.40618e-07
3.11747e-07
1.72783e-07
9.20416e-08
4.71247e-08
2.31895e-08
1.09676e-08
4.98542e-09
2.17803e-09
9.14518e-10
3.6905e-10
1.43133e-10
5.33523e-11
1.91127e-11
6.58e-12
2.16689e-12
1.03801e-12
0
0
0
0
0
0
0
0
0
0
0
0
0
0
0
0
0
0
0
0
0
0
0
0
0
0
0
0
1.78851e-20
9.28114e-20
4.63041e-19
2.22096e-18
1.02415e-17
4.54024e-17
1.93502e-16
7.92828e-16
3.12289e-15
1.18253e-14
4.30475e-14
1.50646e-13
5.06802e-13
1.63904e-12
5.09574e-12
1.52297e-11
4.3756e-11
1.2085e-10
3.20861e-10
8.18928e-10
2.00927e-09
4.74033e-09
1.08061e-08
2.38437e-08
5.06807e-08
1.03551e-07
2.0338e-07
3.83972e-07
6.96835e-07
1.21561e-06
2.03843e-06
3.28569e-06
5.09085e-06
7.58198e-06
1.08543e-05
1.49365e-05
1.9757e-05
2.51197e-05
3.06995e-05
3.60636e-05
4.07216e-05
4.41976e-05
4.61092e-05
4.62371e-05
4.45663e-05
4.12888e-05
3.67678e-05
3.1471e-05
2.58916e-05
2.04744e-05
1.55619e-05
1.13688e-05
7.983e-06
5.3878e-06
3.49503e-06
2.17912e-06
1.30587e-06
7.52151e-07
4.16385e-07
2.21547e-07
1.13297e-07
5.56862e-08
2.63058e-08
1.19434e-08
5.21166e-09
2.1857e-09
8.80991e-10
3.41283e-10
1.27063e-10
4.54656e-11
1.56347e-11
5.13892e-12
2.45336e-12
0
0
0
0
0
0
0
0
0
0
0
0
0
0
0
0
0
0
0
0
0
0
0
0
0
0
0
0
4.07503e-20
2.12158e-19
1.06178e-18
5.10812e-18
2.36227e-17
1.05012e-16
4.48737e-16
1.84324e-15
7.27793e-15
2.76229e-14
1.00778e-13
3.53421e-13
1.19139e-12
3.8605e-12
1.20244e-11
3.60011e-11
1.03609e-10
2.86619e-10
7.62155e-10
1.94809e-09
4.78638e-09
1.13059e-08
2.57893e-08
5.69048e-08
1.20928e-07
2.47015e-07
4.84999e-07
9.15325e-07
1.66046e-06
2.89531e-06
4.85265e-06
7.81766e-06
1.21056e-05
1.80182e-05
2.57779e-05
3.54483e-05
4.68548e-05
5.9528e-05
7.26939e-05
8.53263e-05
9.62665e-05
0.000104394
0.000108812
0.000109015
0.000104978
9.71662e-05
8.64435e-05
7.39179e-05
6.07528e-05
4.79934e-05
3.64412e-05
2.6595e-05
1.86552e-05
1.25775e-05
8.15039e-06
5.07636e-06
3.03889e-06
1.74849e-06
9.66932e-07
5.1394e-07
2.62549e-07
1.2891e-07
6.08336e-08
2.75915e-08
1.20277e-08
5.03921e-09
2.02915e-09
7.853e-10
2.92096e-10
1.0442e-10
3.5875e-11
1.17353e-11
5.52867e-12
0
0
0
0
0
0
0
0
0
0
0
0
0
0
0
0
0
0
0
0
0
0
0
0
0
0
0
1.83544e-20
1.01101e-19
5.25194e-19
2.30693e-18
1.12257e-17
5.23828e-17
2.33439e-16
1.00017e-15
4.11871e-15
1.63018e-14
6.20158e-14
2.26756e-13
7.96901e-13
2.6918e-12
8.73921e-12
2.72706e-11
8.17922e-11
2.35789e-10
6.53326e-10
1.73994e-09
4.45385e-09
1.09581e-08
2.5916e-08
5.91573e-08
1.30548e-07
2.77399e-07
5.66542e-07
1.11212e-06
2.09827e-06
3.80507e-06
6.63221e-06
1.11108e-05
1.78908e-05
2.7689e-05
4.11888e-05
5.88906e-05
8.09298e-05
0.000106898
0.000135714
0.000165606
0.000194234
0.000218964
0.000237256
0.000247092
0.000247342
0.000237977
0.000220075
0.000195615
0.000167122
0.000137233
0.000108313
8.21676e-05
5.99122e-05
4.1988e-05
2.82832e-05
1.83116e-05
1.13951e-05
6.81555e-06
3.9181e-06
2.16492e-06
1.14973e-06
5.8687e-07
2.87922e-07
1.35768e-07
6.15324e-08
2.68039e-08
1.12222e-08
4.51586e-09
1.74658e-09
6.4926e-10
2.3197e-10
7.96564e-11
2.5783e-11
1.1742e-11
0
0
0
0
0
0
0
0
0
0
0
0
0
0
0
0
0
0
0
0
0
0
0
0
0
0
0
0.00291766
0.00937661
0.0148577
0.0169664
0.0154345
0.0101212
0.00328369
2.94044e-05
1.32917e-07
4.01298e-10
1.04351e-12
4.97161e-13
1.74391e-12
5.89863e-12
1.91753e-11
5.99101e-11
1.79898e-10
5.19187e-10
1.4401e-09
3.83918e-09
9.83696e-09
2.42249e-08
5.7339e-08
1.30932e-07
2.88878e-07
6.13581e-07
1.25256e-06
2.45754e-06
4.63419e-06
8.39893e-06
1.46303e-05
2.44941e-05
3.94141e-05
6.09573e-05
9.0612e-05
0.000129459
0.000177774
0.000234637
0.000297656
0.000362934
0.000425338
0.000479112
0.000518725
0.000539803
0.000539924
0.000519074
0.000479653
0.000426017
0.000363687