# vtk DataFile Version 2.0
Structured output generated by Nextsim
ASCII
DATASET STRUCTURED_POINTS
DIMENSIONS 3 3 1
ORIGIN 0 0 0
SPACING 0.5 0.5 0.5
POINT_DATA 9
SCALARS interpolate DOUBLE 1
LOOKUP_TABLE default
7.09221e-09
1.69669e-07
3.32247e-07
3.59665e-09
2.03392e-06
4.06425e-06
1.01088e-10
3.89817e-06
7.79625e-06
CELL_DATA 4
SCALARS average DOUBLE 1
LOOKUP_TABLE default
7.09221e-09
3.32247e-07
1.01088e-10
7.79625e-06
