# vtk DataFile Version 2.0
Structured output generated by Nextsim
ASCII
DATASET STRUCTURED_POINTS
DIMENSIONS 3 3 1
ORIGIN 0 0 0
SPACING 0.5 0.5 0.5
POINT_DATA 9
SCALARS interpolate DOUBLE 1
LOOKUP_TABLE default
3.0328e-07
1.34121e-05
2.6521e-05
1.52799e-07
0.000297574
0.000594996
2.31817e-09
0.000581736
0.00116347
CELL_DATA 4
SCALARS average DOUBLE 1
LOOKUP_TABLE default
3.0328e-07
2.6521e-05
2.31817e-09
0.00116347
