# vtk DataFile Version 2.0
Structured output generated by Nextsim
ASCII
DATASET STRUCTURED_POINTS
DIMENSIONS 3 3 1
ORIGIN 0 0 0
SPACING 0.5 0.5 0.5
POINT_DATA 9
SCALARS interpolate DOUBLE 1
LOOKUP_TABLE default
3.48101e-08
1.01874e-06
2.00266e-06
1.76071e-08
1.4943e-05
2.98685e-05
4.04139e-10
2.88673e-05
5.77342e-05
CELL_DATA 4
SCALARS average DOUBLE 1
LOOKUP_TABLE default
3.48101e-08
2.00266e-06
4.04139e-10
5.77342e-05
