# vtk DataFile Version 2.0
Structured output generated by Nextsim
ASCII
DATASET STRUCTURED_POINTS
DIMENSIONS 101 101 1
ORIGIN 0 0 0
SPACING 0.01 0.01 0.01
POINT_DATA 10201
SCALARS interpolate DOUBLE 1
LOOKUP_TABLE default
0
0
0
0
0
0
0
0
0
0
0
0
0
0
0
0
0
0
0
0
0
0
0
0
0
0
0
0
0
0
0
0
0
0
0
0
0
0
0
0
0
0
0
0
0
0
0
0
0
0
0
0
0
0
0
0
0
0
0
0
0
0
0
0
0
0
0
0
0
0
0
0
0
0
0
0
0
0
0
0
0
0
0
0
0
0
0
0
0
0
0
0
0
0
0
0
0
0
0
0
0
0
0
0
0
0
0
0
0
0
0
0
0
0
0
0
0
0
0
0
0
0
0
0
0
0
0
0
0
0
0
0
0
0
0
0
0
0
0
0
0
0
0
0
0
0
0
0
0
0
0
0
0
0
0
0
0
0
0
0
0
0
0
0
0
0
0
0
0
0
0
0
0
0
0
0
0
0
0
0
0
0
0
0
0
0
0
0
0
0
0
0
0
0
0
0
0
0
0
0
0
0
0
0
0
0
0
0
0
0
0
0
0
0
0
0
0
0
0
0
0
0
0
0
0
0
0
0
0
0
0
0
0
0
0
0
0
0
0
0
0
0
0
0
0
0
0
0
0
0
0
0
0
0
0
0
0
0
0
0
0
0
0
0
0
0
0
0
0
0
0
0
0
0
0
0
0
0
0
0
0
0
0
0
0
0
0
0
0
0
0
0
0
0
0
0
0
0
0
0
0
0
0
0
0
0
0
0
0
0
0
0
0
0
0
0
0
0
0
0
0
0
0
0
0
0
0
0
0
0
0
0
0
0
0
0
0
0
0
0
0
0
0
0
0
0
0
0
0
0
0
0
0
0
0
0
0
0
0
0
0
0
0
0
0
0
0
0
1.82666e-20
3.19234e-20
3.71087e-20
2.19349e-20
0
0
0
0
0
0
0
0
0
0
0
0
0
0
0
0
0
0
0
0
0
0
0
0
0
0
0
0
0
0
0
0
0
0
0
0
0
0
0
0
0
0
0
0
0
0
0
0
0
0
0
0
0
0
0
0
0
0
0
0
0
0
0
0
0
0
0
0
0
0
0
0
0
0
0
0
0
0
0
0
0
0
0
0
0
0
0
0
0
0
0
0
0
1.00001e-20
3.53995e-20
1.04339e-19
2.67579e-19
5.81184e-19
9.83273e-19
1.11482e-18
6.46743e-19
2.32222e-19
1.32466e-19
4.4932e-20
2.17691e-20
0
0
0
0
0
0
0
0
0
0
0
0
0
0
0
0
0
0
0
0
0
0
0
0
0
0
0
0
0
0
0
0
0
0
0
0
0
0
0
0
0
0
0
0
0
0
0
0
0
0
0
0
0
0
0
0
0
0
0
0
0
0
0
0
0
0
0
0
0
0
0
0
0
0
0
0
0
0
0
0
0
0
0
0
0
0
0
1.64121e-20
8.61225e-20
3.63214e-19
1.22694e-18
3.42772e-18
8.35999e-18
1.74125e-17
2.84902e-17
3.14904e-17
1.7938e-17
6.25961e-18
3.51562e-18
1.16578e-18
5.59253e-19
4.28845e-20
0
0
0
0
0
0
0
0
0
0
0
0
0
0
0
0
0
0
0
0
0
0
0
0
0
0
0
0
0
0
0
0
0
0
0
0
0
0
0
0
0
0
0
0
0
0
0
0
0
0
0
0
0
0
0
0
0
0
0
0
0
0
0
0
0
0
0
0
0
0
0
0
0
0
0
0
0
0
0
0
0
0
0
0
1.29548e-20
9.68006e-20
6.02868e-19
3.0622e-18
1.24295e-17
4.00649e-17
1.05976e-16
2.45407e-16
4.89466e-16
7.73732e-16
8.33323e-16
4.66343e-16
1.58637e-16
8.77625e-17
2.85241e-17
1.35495e-17
1.05146e-18
0
0
0
0
0
0
0
0
0
0
0
0
0
0
0
0
0
0
0
0
0
0
0
0
0
0
0
0
0
0
0
0
0
0
0
0
0
0
0
0
0
0
0
0
0
0
0
0
0
0
0
0
0
0
0
0
0
0
0
0
0
0
0
0
0
0
0
0
0
0
0
0
0
0
0
0
0
0
0
0
0
0
0
5.52466e-20
4.73021e-19
3.43685e-18
2.07761e-17
1.02123e-16
3.98989e-16
1.22726e-15
3.0707e-15
6.74055e-15
1.28558e-14
1.96136e-14
2.05735e-14
1.13177e-14
3.76615e-15
2.05343e-15
6.56076e-16
3.08612e-16
2.43044e-17
9.7336e-20
0
0
0
0
0
0
0
0
0
0
0
0
0
0
0
0
0
0
0
0
0
0
0
0
0
0
0
0
0
0
0
0
0
0
0
0
0
0
0
0
0
0
0
0
0
0
0
0
0
0
0
0
0
0
0
0
0
0
0
0
0
0
0
0
0
0
0
0
0
0
0
0
0
0
0
0
0
0
0
0
1.8189e-20
2.01082e-19
1.94181e-18
1.61617e-17
1.14041e-16
6.68542e-16
3.17855e-15
1.19532e-14
3.50893e-14
8.29832e-14
1.72406e-13
3.13995e-13
4.6187e-13
4.71624e-13
2.55218e-13
8.34126e-14
4.48498e-14
1.4134e-14
6.58458e-15
5.27938e-16
2.28567e-18
0
0
0
0
0
0
0
0
0
0
0
0
0
0
0
0
0
0
0
0
0
0
0
0
0
0
0
0
0
0
0
0
0
0
0
0
0
0
0
0
0
0
0
0
0
0
0
0
0
0
0
0
0
0
0
0
0
0
0
0
0
0
0
0
0
0
0
0
0
0
0
0
0
0
0
0
0
0
0
5.19595e-20
6.3241e-19
6.79273e-18
6.36865e-17
5.143e-16
3.51863e-15
1.99787e-14
9.18106e-14
3.32278e-13
9.31047e-13
2.07981e-12
4.08355e-12
7.09218e-12
1.00479e-11
9.98357e-12
5.31921e-12
1.71533e-12
9.1023e-13
2.84024e-13
1.31072e-13
1.07377e-14
5.06016e-17
2.12414e-19
0
0
0
0
0
0
0
0
0
0
0
0
0
0
0
0
0
0
0
0
0
0
0
0
0
0
0
0
0
0
0
0
0
0
0
0
0
0
0
0
0
0
0
0
0
0
0
0
0
0
0
0
0
0
0
0
0
0
0
0
0
0
0
0
0
0
0
0
0
0
0
0
0
0
0
0
0
1.31035e-19
1.73876e-18
2.05266e-17
2.13656e-16
1.93986e-15
1.51628e-14
1.00369e-13
5.51047e-13
2.44495e-12
8.5128e-12
2.27712e-11
4.80242e-11
8.8984e-11
1.47179e-10
2.00633e-10
1.93902e-10
1.01827e-10
3.25739e-11
1.70745e-11
5.29873e-12
2.423e-12
2.03647e-13
1.05276e-15
4.78355e-18
0
0
0
0
0
0
0
0
0
0
0
0
0
0
0
0
0
0
0
0
0
0
0
0
0
0
0
0
0
0
0
0
0
0
0
0
0
0
0
0
0
0
0
0
0
0
0
0
0
0
0
0
0
0
0
0
0
0
0
0
0
0
0
0
0
0
0
0
0
0
0
0
0
0
0
1.85198e-20
2.94483e-19
4.22553e-18
5.42807e-17
6.19558e-16
6.22874e-15
5.45865e-14
4.11702e-13
2.62944e-12
1.39273e-11
5.95708e-11
1.99408e-10
5.0926e-10
1.01364e-09
1.77007e-09
2.78458e-09
3.64884e-09
3.42903e-09
1.77737e-09
5.67561e-10
2.94223e-10
9.12721e-11
4.13748e-11
3.58454e-12
2.05089e-14
1.01556e-16
0
0
0
0
0
0
0
0
0
0
0
0
0
0
0
0
0
0
0
0
0
0
0
0
0
0
0
0
0
0
0
0
0
0
0
0
0
0
0
0
0
0
0
0
0
0
0
0
0
0
0
0
0
0
0
0
0
0
0
0
0
0
0
0
0
0
0
0
0
0
0
0
0
0
3.58913e-20
5.95874e-19
9.17253e-18
1.27172e-16
1.57564e-15
1.73188e-14
1.67471e-13
1.41067e-12
1.02248e-11
6.27793e-11
3.19838e-10
1.31596e-09
4.23042e-09
1.03145e-08
1.93716e-08
3.18413e-08
4.75847e-08
5.98832e-08
5.47118e-08
2.80425e-08
9.00508e-09
4.62369e-09
1.44238e-09
6.48582e-10
5.82382e-11
3.72572e-13
2.02602e-15
0
0
0
0
0
0
0
0
0
0
0
0
0
0
0
0
0
0
0
0
0
0
0
0
0
0
0
0
0
0
0
0
0
0
0
0
0
0
0
0
0
0
0
0
0
0
0
0
0
0
0
0
0
0
0
0
0
0
0
0
0
0
0
0
0
0
0
0
0
0
0
0
0
6.61832e-20
1.12035e-18
1.7986e-17
2.67061e-16
3.5631e-15
4.23857e-14
4.46417e-13
4.1302e-12
3.32586e-11
2.30453e-10
1.35373e-09
6.60685e-09
2.60702e-08
8.03488e-08
1.86982e-07
3.31316e-07
5.12035e-07
7.26099e-07
8.76835e-07
7.78862e-07
3.9574e-07
1.28929e-07
6.56972e-08
2.07546e-08
9.26543e-09
8.67832e-10
6.28185e-12
3.78436e-14
0
0
0
0
0
0
0
0
0
0
0
0
0
0
0
0
0
0
0
0
0
0
0
0
0
0
0
0
0
0
0
0
0
0
0
0
0
0
0
0
0
0
0
0
0
0
0
0
0
0
0
0
0
0
0
0
0
0
0
0
0
0
0
0
0
0
0
0
0
0
0
0
1.16592e-19
2.011e-18
3.28867e-17
5.08615e-16
7.25388e-15
9.26864e-14
1.05287e-12
1.05616e-11
9.28744e-11
7.10001e-10
4.67065e-09
2.6081e-08
1.21269e-07
4.56983e-07
1.3468e-06
2.98957e-06
4.99762e-06
7.25489e-06
9.75247e-06
1.12934e-05
9.75607e-06
4.93105e-06
1.6474e-06
8.3529e-07
2.69469e-07
1.1958e-07
1.17721e-08
9.77712e-11
6.591e-13
0
0
0
0
0
0
0
0
0
0
0
0
0
0
0
0
0
0
0
0
0
0
0
0
0
0
0
0
0
0
0
0
0
0
0
0
0
0
0
0
0
0
0
0
0
0
0
0
0
0
0
0
0
0
0
0
0
0
0
0
0
0
0
0
0
0
0
0
0
0
1.06382e-20
1.96755e-19
3.45685e-18
5.75608e-17
9.06038e-16
1.34428e-14
1.83282e-13
2.23074e-12
2.40483e-11
2.28127e-10
1.89139e-09
1.36066e-08
8.42096e-08
4.43137e-07
1.94819e-06
6.96905e-06
1.95629e-05
4.13692e-05
6.52456e-05
8.88979e-05
0.000113191
0.000125636
0.000105641
5.33785e-05
1.85296e-05
9.38267e-06
3.12231e-06
1.37968e-06
1.44067e-07
1.3958e-09
1.06527e-11
0
0
0
0
0
0
0
0
0
0
0
0
0
0
0
0
0
0
0
0
0
0
0
0
0
0
0
0
0
0
0
0
0
0
0
0
0
0
0
0
0
0
0
0
0
0
0
0
0
0
0
0
0
0
0
0
0
0
0
0
0
0
0
0
0
0
0
0
0
1.68294e-20
3.17405e-19
5.68365e-18
9.64022e-17
1.54474e-15
2.33163e-14
3.30421e-13
4.28518e-12
4.9399e-11
5.02063e-10
4.46862e-09
3.46054e-08
2.31737e-07
1.33334e-06
6.5344e-06
2.68748e-05
9.04689e-05
0.00024041
0.000483206
0.000718977
0.000919004
0.00110779
0.00117849
0.000966161
0.000491642
0.000180289
9.16416e-05
3.18473e-05
1.40478e-05
1.57339e-06
1.81416e-08
1.58905e-10
0
0
0
0
0
0
0
0
0
0
0
0
0
0
0
0
0
0
0
0
0
0
0
0
0
0
0
0
0
0
0
0
0
0
0
0
0
0
0
0
0
0
0
0
0
0
0
0
0
0
0
0
0
0
0
0
0
0
0
0
0
0
0
0
0
0
0
0
2.51329e-20
4.84198e-19
8.8514e-18
1.53165e-16
2.50206e-15
3.84698e-14
5.54824e-13
7.47723e-12
9.17826e-11
9.96671e-10
9.48892e-09
7.86162e-08
5.62924e-07
3.46435e-06
1.82513e-05
8.19568e-05
0.000310553
0.000971094
0.00241904
0.00460157
0.00645817
0.00774411
0.0088376
0.00901721
0.00723143
0.00374854
0.00148324
0.000762582
0.000281035
0.000124199
1.51297e-05
2.12755e-07
2.17369e-09
0
0
0
0
0
0
0
0
0
0
0
0
0
0
0
0
0
0
0
0
0
0
0
0
0
0
0
0
0
0
0
0
0
0
0
0
0
0
0
0
0
0
0
0
0
0
0
0
0
0
0
0
0
0
0
0
0
0
0
0
0
0
0
0
0
0
0
3.46049e-20
6.82754e-19
1.27747e-17
2.26109e-16
3.77534e-15
5.92817e-14
8.72349e-13
1.19823e-11
1.52935e-10
1.76861e-09
1.80045e-08
1.59699e-07
1.22304e-06
8.01869e-06
4.47247e-05
0.000211733
0.00085197
0.00290819
0.00827923
0.019015
0.0339541
0.0449175
0.0505758
0.0547005
0.0536485
0.0423586
0.0227929
0.0100053
0.00526381
0.00209754
0.000933904
0.000125951
2.22705e-06
2.70614e-08
0
0
0
0
0
0
0
0
0
0
0
0
0
0
0
0
0
0
0
0
0
0
0
0
0
0
0
0
0
0
0
0
0
0
0
0
0
0
0
0
0
0
0
0
0
0
0
0
0
0
0
0
0
0
0
0
0
0
0
0
0
0
0
0
0
0
4.23251e-20
8.57762e-19
1.64776e-17
2.99275e-16
5.12459e-15
8.24648e-14
1.2426e-12
1.74609e-11
2.27735e-10
2.74196e-09
2.9747e-08
2.82782e-07
2.3274e-06
1.63918e-05
9.76245e-05
0.000486923
0.00202714
0.00709223
0.0210825
0.0528965
0.108695
0.179107
0.22288
0.236397
0.243175
0.23059
0.18171
0.104912
0.053002
0.0290729
0.0128441
0.00581226
0.000888205
2.05317e-05
3.03843e-07
0
0
0
0
0
0
0
0
0
0
0
0
0
0
0
0
0
0
0
0
0
0
0
0
0
0
0
0
0
0
0
0
0
0
0
0
0
0
0
0
0
0
0
0
0
0
0
0
0
0
0
0
0
0
0
0
0
0
0
0
0
0
0
0
0
4.35609e-20
9.09525e-19
1.79952e-17
3.36505e-16
5.93006e-15
9.81612e-14
1.52065e-12
2.19533e-11
2.93935e-10
3.62954e-09
4.10625e-08
4.16217e-07
3.68287e-06
2.80504e-05
0.000181137
0.000975017
0.00430257
0.0154064
0.04508
0.110831
0.232129
0.402396
0.587181
0.683131
0.689415
0.681959
0.635423
0.516106
0.339886
0.207057
0.122263
0.0618437
0.028865
0.00515654
0.000163936
3.04291e-06
1.47191e-20
1.29963e-20
1.10293e-20
0
0
0
0
0
0
0
0
0
0
0
0
0
0
0
0
0
0
0
0
0
0
0
0
0
0
0
0
0
0
0
0
0
0
0
0
0
0
0
0
0
0
0
0
0
0
0
0
0
0
0
0
0
0
0
0
0
0
0
0
0
3.47609e-20
7.49896e-19
1.53275e-17
2.96048e-16
5.38764e-15
9.20762e-14
1.47227e-12
2.19313e-11
3.02868e-10
3.85549e-09
4.4941e-08
4.75875e-07
4.48891e-06
3.68657e-05
0.000259342
0.00153319
0.0074409
0.0288579
0.0872061
0.204039
0.384937
0.617939
0.810519
0.93787
0.999357
0.996607
0.985142
0.947769
0.858057
0.710558
0.544095
0.365861
0.220256
0.108846
0.0237251
0.0011095
2.68108e-05
8.60442e-20
7.56446e-20
6.38596e-20
5.18197e-20
4.04176e-20
3.02998e-20
2.18318e-20
1.51184e-20
1.00618e-20
0
0
0
0
0
0
0
0
0
0
0
0
0
0
0
0
0
0
0
0
0
0
0
0
0
0
0
0
0
0
0
0
0
0
0
0
0
0
0
0
0
0
0
0
0
0
0
0
0
0
0
0
0
0
1.86732e-20
4.17421e-19
8.84108e-18
1.7696e-16
3.33741e-15
5.9113e-14
9.79661e-13
1.51266e-11
2.16552e-10
2.85809e-09
3.45458e-08
3.79395e-07
3.74999e-06
3.28302e-05
0.000249745
0.00162024
0.00875664
0.0382436
0.129802
0.326879
0.589215
0.792565
0.931314
1
0.999999
0.999989
0.999919
0.999482
0.997175
0.987212
0.953508
0.869049
0.721131
0.531932
0.292263
0.0823145
0.00618788
0.00020424
4.86618e-19
4.26071e-19
3.57865e-19
2.88926e-19
2.24219e-19
1.67248e-19
1.19906e-19
8.26225e-20
5.47167e-20
3.48254e-20
2.13017e-20
1.25217e-20
0
0
0
0
0
0
0
0
0
0
0
0
0
0
0
0
0
0
0
0
0
0
0
0
0
0
0
0
0
0
0
0
0
0
0
0
0
0
0
0
0
0
0
0
0
0
0
0
0
0
0
1.15776e-19
2.55279e-18
5.32176e-17
1.04592e-15
1.93178e-14
3.34089e-13
5.38801e-12
8.06521e-11
1.11446e-09
1.41263e-08
1.63026e-07
1.69772e-06
1.57815e-05
0.000129184
0.000915371
0.00549363
0.027142
0.106278
0.313426
0.653537
0.92394
1
1
1
1
1
0.999999
0.99999
0.999923
0.999468
0.996851
0.98438
0.936931
0.800527
0.528647
0.204066
0.0273951
0.00131497
2.66608e-18
2.32193e-18
1.94064e-18
1.55912e-18
1.20404e-18
8.9375e-19
6.37661e-19
4.37271e-19
2.88195e-19
1.82551e-19
1.11131e-19
6.50169e-20
3.65551e-20
1.9751e-20
1.02552e-20
0
0
0
0
0
0
0
0
0
0
0
0
0
0
0
0
0
0
0
0
0
0
0
0
0
0
0
0
0
0
0
0
0
0
0
0
0
0
0
0
0
0
0
0
0
0
0
0
1.95805e-19
4.35857e-18
9.17265e-17
1.81976e-15
3.3922e-14
5.91956e-13
9.6296e-12
1.45322e-10
2.02308e-09
2.58102e-08
2.99409e-07
3.12846e-06
2.91048e-05
0.000236928
0.00165142
0.00961911
0.0453622
0.16596
0.44484
0.816064
1
1
1
1
1
1
1
0.999998
0.999985
0.999876
0.999126
0.994763
0.974086
0.898039
0.696942
0.36224
0.0917186
0.00693997
1.41165e-17
1.22405e-17
1.01817e-17
8.14124e-18
6.2574e-18
4.62294e-18
3.28284e-18
2.24066e-18
1.4699e-18
9.26762e-19
5.61578e-19
3.27041e-19
1.83034e-19
9.84447e-20
5.08829e-20
2.52732e-20
1.20629e-20
0
0
0
0
0
0
0
0
0
0
0
0
0
0
0
0
0
0
0
0
0
0
0
0
0
0
0
0
0
0
0
0
0
0
0
0
0
0
0
0
0
0
0
0
0
2.70753e-20
6.44176e-19
1.44919e-17
3.07391e-16
6.12786e-15
1.14394e-13
1.99152e-12
3.21817e-11
4.80077e-10
6.56954e-09
8.18519e-08
9.20253e-07
9.23538e-06
8.16298e-05
0.00062461
0.00404579
0.0215447
0.0906758
0.285768
0.628916
0.915774
1
1
1
1
1
1
1
0.999999
0.999994
0.999951
0.999635
0.997687
0.987717
0.947045
0.821963
0.556249
0.220394
0.0287716
7.24913e-17
6.24099e-17
5.16736e-17
4.11281e-17
3.14665e-17
2.31412e-17
1.63583e-17
1.11146e-17
7.25833e-18
4.55575e-18
2.74822e-18
1.59331e-18
8.87763e-19
4.75368e-19
2.44619e-19
1.20968e-19
5.74854e-20
2.6251e-20
1.15193e-20
0
0
0
0
0
0
0
0
0
0
0
0
0
0
0
0
0
0
0
0
0
0
0
0
0
0
0
0
0
0
0
0
0
0
0
0
0
0
0
0
0
0
0
4.32036e-20
1.0401e-18
2.36752e-17
5.08064e-16
1.02454e-14
1.93431e-13
3.40467e-12
5.56003e-11
8.37711e-10
1.15682e-08
1.45277e-07
1.64361e-06
1.65596e-05
0.000146445
0.00111219
0.00705378
0.0361533
0.143239
0.41259
0.799432
1
1
1
1
1
1
1
1
1
0.999999
0.999991
0.999921
0.999399
0.996114
0.979279
0.912361
0.721397
0.37981
0.0881396
3.58831e-16
3.07705e-16
2.53635e-16
2.00976e-16
1.53082e-16
1.12083e-16
7.88808e-17
5.33597e-17
3.46938e-17
2.16809e-17
1.30219e-17
7.5169e-18
4.17019e-18
2.2234e-18
1.13923e-18
5.60963e-19
2.65444e-19
1.20703e-19
5.27429e-20
2.21463e-20
0
0
0
0
0
0
0
0
0
0
0
0
0
0
0
0
0
0
0
0
0
0
0
0
0
0
0
0
0
0
0
0
0
0
0
0
0
0
0
0
0
0
1.41654e-19
3.46682e-18
7.99955e-17
1.73471e-15
3.52238e-14
6.6695e-13
1.17203e-11
1.90106e-10
2.82804e-09
3.82938e-08
4.67737e-07
5.09723e-06
4.88905e-05
0.000405702
0.00285008
0.016468
0.0751679
0.256008
0.60155
0.90673
1
1
1
1
1
1
1
1
1
1
0.999997
0.999969
0.999752
0.998292
0.990152
0.953949
0.832626
0.553475
0.183157
1.71786e-15
1.46678e-15
1.20383e-15
9.49794e-16
7.20349e-16
5.25163e-16
3.68019e-16
2.4789e-16
1.60491e-16
9.98698e-17
5.97306e-17
3.43344e-17
1.89681e-17
1.00709e-17
5.13867e-18
2.51981e-18
1.18743e-18
5.37726e-19
2.34003e-19
9.78544e-20
3.93206e-20
1.51763e-20
0
0
0
0
0
0
0
0
0
0
0
0
0
0
0
0
0
0
0
0
0
0
0
0
0
0
0
0
0
0
0
0
0
0
0
0
0
0
0
0
1.90631e-19
4.70077e-18
1.09283e-16
2.3875e-15
4.88364e-14
9.31415e-13
1.6484e-11
2.69208e-10
4.03084e-09
5.49081e-08
6.74189e-07
7.37744e-06
7.0935e-05
0.000588553
0.0041204
0.0236138
0.105965
0.34863
0.762682
1
1
1
1
1
1
1
1
1
1
1
0.999999
0.999993
0.999934
0.999448
0.996082
0.977253
0.896611
0.655791
0.239858
7.95046e-15
6.75887e-15
5.52412e-15
4.34028e-15
3.27813e-15
2.37999e-15
1.66094e-15
1.11417e-15
7.18378e-16
4.45195e-16
2.65176e-16
1.51807e-16
8.35247e-17
4.41666e-17
2.2445e-17
1.09618e-17
5.14487e-18
2.32053e-18
1.0058e-18
4.18931e-19
1.67672e-19
6.44639e-20
2.36995e-20
0
0
0
0
0
0
0
0
0
0
0
0
0
0
0
0
0
0
0
0
0
0
0
0
0
0
0
0
0
0
0
0
0
0
0
0
0
0
0
1.0058e-19
2.54234e-18
6.06603e-17
1.36181e-15
2.86614e-14
5.63184e-13
1.02829e-11
1.735e-10
2.68785e-09
3.79414e-08
4.8354e-07
5.50162e-06
5.51075e-05
0.000477352
0.00349252
0.0209033
0.0978089
0.334444
0.754467
0.999994
1
1
1
1
1
1
1
1
1
1
1
0.999995
0.999948
0.999545
0.99663
0.979604
0.903624
0.667858
0.2468
3.55497e-14
3.01013e-14
2.45034e-14
1.91749e-14
1.44244e-14
1.04305e-14
7.25014e-15
4.84403e-15
3.11083e-15
1.9202e-15
1.13921e-15
6.49593e-16
3.55999e-16
1.87506e-16
9.49148e-17
4.61737e-17
2.15869e-17
9.69865e-18
4.18746e-18
1.7374e-18
6.92699e-19
2.6531e-19
9.72155e-20
3.26455e-20
1.46609e-20
0
0
0
0
0
0
0
0
0
0
0
0
0
0
0
0
0
0
0
0
0
0
0
0
0
0
0
0
0
0
0
0
0
0
0
0
0
4.47095e-20
1.17779e-18
2.93261e-17
6.87651e-16
1.51279e-14
3.10928e-13
5.94167e-12
1.04978e-10
1.70371e-09
2.52018e-08
3.3665e-07
4.01522e-06
4.21588e-05
0.000382723
0.00293329
0.0183753
0.089849
0.319984
0.745786
0.999865
0.999999
1
1
1
1
1
1
1
1
1
1
0.999996
0.999955
0.999592
0.996877
0.980551
0.906037
0.671222
0.248493
1.53587e-13
1.29547e-13
1.05047e-13
8.18851e-14
6.13599e-14
4.41987e-14
3.06033e-14
2.03681e-14
1.303e-14
8.01199e-15
4.73509e-15
2.68967e-15
1.46839e-15
7.70459e-16
3.88519e-16
1.88288e-16
8.7694e-17
3.92508e-17
1.6883e-17
6.97855e-18
2.77194e-18
1.05777e-18
3.86336e-19
1.29646e-19
5.84301e-20
0
0
0
0
0
0
0
0
0
0
0
0
0
0
0
0
0
0
0
0
0
0
0
0
0
0
0
0
0
0
0
0
0
0
0
0
0
1.88015e-20
5.16864e-19
1.34958e-17
3.3215e-16
7.67224e-15
1.6561e-13
3.32435e-12
6.17075e-11
1.05225e-09
1.63559e-08
2.29583e-07
2.87711e-06
3.17352e-05
0.000302545
0.00243362
0.0159854
0.0818251
0.30407
0.733803
0.997721
0.999988
1
1
1
1
1
1
1
1
1
1
0.999995
0.999944
0.999494
0.996175
0.976748
0.892035
0.642524
0.230607
6.41039e-13
5.38681e-13
4.35171e-13
3.37954e-13
2.52297e-13
1.81056e-13
1.24896e-13
8.28144e-14
5.27812e-14
3.23338e-14
1.90383e-14
1.07742e-14
5.86024e-15
3.06348e-15
1.53912e-15
7.43156e-16
3.4485e-16
1.53785e-16
6.5906e-17
2.71428e-17
1.07422e-17
4.08451e-18
1.48711e-18
4.98735e-19
2.25602e-19
0
0
0
0
0
0
0
0
0
0
0
0
0
0
0
0
0
0
0
0
0
0
0
0
0
0
0
0
0
0
0
0
0
0
0
0
0
0
2.16698e-19
5.90997e-18
1.52819e-16
3.71158e-15
8.42494e-14
1.77839e-12
3.47103e-11
6.22252e-10
1.01653e-08
1.49901e-07
1.97229e-06
2.28198e-05
0.000227899
0.00191801
0.0131718
0.070443
0.273315
0.688136
0.973569
0.999765
0.999999
1
1
1
1
1
1
1
1
0.999998
0.999986
0.999878
0.998997
0.992962
0.960628
0.836801
0.537022
0.166994
2.58432e-12
2.16386e-12
1.74177e-12
1.34779e-12
1.00255e-12
7.16869e-13
4.92728e-13
3.25536e-13
2.06731e-13
1.26188e-13
7.40328e-14
4.17463e-14
2.26251e-14
1.17851e-14
5.89975e-15
2.8385e-15
1.31247e-15
5.83212e-16
2.49055e-16
1.02208e-16
4.03077e-17
1.52728e-17
5.54348e-18
1.85812e-18
8.43712e-19
0
0
0
0
0
0
0
0
0
0
0
0
0
0
0
0
0
0
0
0
0
0
0
0
0
0
0
0
0
0
0
0
0
0
0
0
0
0
7.46869e-20
1.93427e-18
5.10326e-17
1.27499e-15
2.97801e-14
6.46491e-13
1.29707e-11
2.38964e-10
4.01242e-09
6.08557e-08
8.24759e-07
9.85639e-06
0.000102147
0.000897401
0.00648367
0.0369825
0.157104
0.457197
0.828046
0.996626
0.999972
0.999993
0.999996
0.999999
0.999999
1
1
0.999999
0.999998
0.999989
0.999941
0.999632
0.997528
0.984788
0.923422
0.721981
0.345456
0.0599534
1.00618e-11
8.39563e-12
6.73453e-12
5.19311e-12
3.84949e-12
2.74298e-12
1.87878e-12
1.23696e-12
7.82797e-13
4.76154e-13
2.78383e-13
1.56432e-13
8.44867e-14
4.38552e-14
2.18785e-14
1.04898e-14
4.83355e-15
2.14045e-15
9.10911e-16
3.7254e-16
1.46415e-16
5.52897e-17
2.00078e-17
6.70325e-18
3.05566e-18
0
0
0
0
0
0
0
0
0
0
0
0
0
0
0
0
0
0
0
0
0
0
0
0
0
0
0
0
0
0
0
0
0
0
0
0
0
0
3.58056e-20
2.85292e-19
5.10687e-18
1.14762e-16
2.52061e-15
5.18647e-14
9.93635e-13
1.77269e-11
2.95237e-10
4.60642e-09
6.74634e-08
9.24e-07
1.16751e-05
0.000130364
0.00122808
0.00942499
0.0561509
0.241056
0.660123
0.966506
0.999542
0.999877
0.999929
0.999981
0.999988
0.999996
0.999993
0.999989
0.999977
0.999915
0.999643
0.998538
0.993092
0.967205
0.859651
0.569416
0.182705
4.37285e-11
3.78276e-11
3.14585e-11
2.51502e-11
1.9329e-11
1.428e-11
1.01412e-11
6.92286e-12
4.5426e-12
2.86508e-12
1.7369e-12
1.01207e-12
5.66802e-13
3.05094e-13
1.57837e-13
7.84775e-14
3.75007e-14
1.7222e-14
7.60096e-15
3.22395e-15
1.31413e-15
5.14759e-16
1.93746e-16
6.99055e-17
2.3411e-17
1.0715e-17
0
0
0
0
0
0
0
0
0
0
0
0
0
0
0
0
0
0
0
0
0
0
0
0
0
0
0
0
0
0
0
0
0
0
0
0
0
3.14621e-20
1.0996e-19
3.83364e-19
1.64272e-18
1.57204e-17
3.14145e-16
7.34039e-15
1.67866e-13
3.63593e-12
7.35751e-11
1.3735e-09
2.33398e-08
3.55857e-07
4.7918e-06
5.58879e-05
0.000551276
0.0044614
0.0283943
0.13361
0.424119
0.80997
0.994169
0.998334
0.999057
0.999732
0.999844
0.999942
0.999918
0.99988
0.999777
0.999336
0.997663
0.99289
0.976524
0.923965
0.747001
0.371237
0.06639
1.5923e-10
1.37304e-10
1.13821e-10
9.07047e-11
6.94862e-11
5.11701e-11
3.62222e-11
2.4647e-11
1.61204e-11
1.01344e-11
6.12387e-12
3.55672e-12
1.98546e-12
1.06525e-12
5.49306e-13
2.72234e-13
1.29666e-13
5.93555e-14
2.61119e-14
1.10396e-14
4.48536e-15
1.75131e-15
6.57057e-16
2.36395e-16
7.91404e-17
3.63726e-17
0
0
0
0
0
0
0
0
0
0
0
0
0
0
0
0
0
0
0
0
0
0
0
0
0
0
0
0
0
0
0
0
0
0
0
0
3.15041e-20
1.14193e-19
3.98792e-19
1.34243e-18
4.37549e-18
1.43249e-17
5.96281e-17
5.60551e-16
1.01224e-14
2.04927e-13
4.01126e-12
7.46889e-11
1.3289e-09
2.26681e-08
3.67879e-07
5.41666e-06
6.89087e-05
0.000737689
0.00642241
0.0432548
0.208322
0.627286
0.947276
0.982717
0.990353
0.997007
0.998284
0.999346
0.999139
0.998849
0.998164
0.995482
0.986286
0.966307
0.915517
0.816075
0.577099
0.199865
6.2584e-10
5.59636e-10
4.81099e-10
3.97593e-10
3.15869e-10
2.4123e-10
1.77093e-10
1.24971e-10
8.47705e-11
5.52712e-11
3.46389e-11
2.08656e-11
1.20807e-11
6.72266e-12
3.59558e-12
1.84828e-12
9.13127e-13
4.33563e-13
1.97844e-13
8.6764e-14
3.65673e-14
1.48107e-14
5.7648e-15
2.15614e-15
7.73564e-16
2.58902e-16
1.195e-16
0
0
0
0
0
0
0
0
0
0
0
0
0
0
0
0
0
0
0
0
0
0
0
0
0
0
0
0
0
0
0
0
0
0
0
2.8978e-20
1.09481e-19
3.98454e-19
1.39688e-18
4.7168e-18
1.5341e-17
4.80945e-17
1.46457e-16
4.65051e-16
2.38749e-15
3.4988e-14
8.01527e-13
1.85202e-11
3.97757e-10
7.76943e-09
1.35932e-07
2.09416e-06
2.78585e-05
0.000312594
0.00286584
0.0205147
0.107102
0.366407
0.70854
0.874205
0.929204
0.974284
0.985287
0.993971
0.992612
0.990884
0.987352
0.974656
0.93439
0.866735
0.732848
0.563872
0.319134
0.0735178
2.12901e-09
1.89825e-09
1.62707e-09
1.3407e-09
1.06197e-09
8.08624e-10
5.91863e-10
4.16418e-10
2.81618e-10
1.83066e-10
1.14384e-10
6.86942e-11
3.96523e-11
2.19989e-11
1.17304e-11
6.01166e-12
2.96101e-12
1.40166e-12
6.37671e-13
2.78801e-13
1.17147e-13
4.73039e-14
1.83564e-14
6.845e-15
2.44912e-15
8.1951e-16
3.79921e-16
0
0
0
0
0
0
0
0
0
0
0
0
0
0
0
0
0
0
0
0
0
0
0
0
0
0
0
0
0
0
0
0
0
0
2.44577e-20
9.63389e-20
3.6553e-19
1.33582e-18
4.70155e-18
1.59359e-17
5.20141e-17
1.63476e-16
4.94758e-16
1.44328e-15
4.09442e-15
1.21458e-14
5.54231e-14
6.25244e-13
1.09591e-11
2.07277e-10
4.0515e-09
7.58928e-08
1.25119e-06
1.77569e-05
0.000211598
0.00204531
0.0152452
0.0809407
0.267959
0.458477
0.673237
0.84376
0.908594
0.957029
0.950841
0.943677
0.930867
0.888605
0.763338
0.606444
0.386128
0.194115
0.0786901
7.55555e-09
6.98789e-09
6.21309e-09
5.31057e-09
4.36352e-09
3.44656e-09
2.61686e-09
1.9099e-09
1.33989e-09
9.03541e-10
5.8565e-10
3.64866e-10
2.18487e-10
1.2575e-10
6.95622e-11
3.6984e-11
1.88984e-11
9.28105e-12
4.38052e-12
1.98703e-12
8.6622e-13
3.62902e-13
1.46111e-13
5.65327e-14
2.10193e-14
7.50068e-15
2.50942e-15
1.1686e-15
0
0
0
0
0
0
0
0
0
0
0
0
0
0
0
0
0
0
0
0
0
0
0
0
0
0
0
0
0
0
0
0
0
1.8932e-20
7.77719e-20
3.07712e-19
1.17254e-18
4.30274e-18
1.52042e-17
5.17314e-17
1.69469e-16
5.34501e-16
1.62293e-15
4.74376e-15
1.33482e-14
3.61721e-14
9.46572e-14
2.42636e-13
6.40945e-13
1.85553e-12
6.81325e-12
9.35902e-11
2.00301e-09
4.06069e-08
7.26245e-07
1.11832e-05
0.000144509
0.00151303
0.01219
0.0696262
0.244767
0.424994
0.633953
0.781951
0.766186
0.749361
0.722646
0.641384
0.413757
0.211944
0.0871389
2.50485e-08
2.49999e-08
2.39875e-08
2.21265e-08
1.96207e-08
1.67256e-08
1.37057e-08
1.07961e-08
8.17474e-09
5.94991e-09
4.16264e-09
2.79926e-09
1.80936e-09
1.1241e-09
6.71246e-10
3.85252e-10
2.12514e-10
1.12669e-10
5.74099e-11
2.81145e-11
1.32321e-11
5.98519e-12
2.60177e-12
1.08692e-12
4.36373e-13
1.68362e-13
6.24217e-14
2.22174e-14
7.43219e-15
3.47698e-15
0
0
0
0
0
0
0
0
0
0
0
0
0
0
0
0
0
0
0
0
0
0
0
0
0
0
0
0
0
0
0
0
1.34332e-20
5.7568e-20
2.37592e-19
9.44281e-19
3.61376e-18
1.33161e-17
4.72417e-17
1.61355e-16
5.3054e-16
1.67923e-15
5.11606e-15
1.50027e-14
4.23442e-14
1.15024e-13
3.00711e-13
7.56742e-13
1.83485e-12
4.30335e-12
9.88473e-12
2.22963e-11
4.97733e-11
1.38175e-10
1.12491e-09
2.09447e-08
4.02817e-07
6.76663e-06
9.54128e-05
0.001088
0.00950611
0.058261
0.212219
0.319494
0.308741
0.297609
0.280766
0.231365
0.0964952
6.91008e-08
7.44341e-08
7.70833e-08
7.6743e-08
7.3451e-08
6.75816e-08
5.97754e-08
5.08243e-08
4.15401e-08
3.26364e-08
2.46473e-08
1.7892e-08
1.24844e-08
8.37304e-09
5.39763e-09
3.3444e-09
1.9917e-09
1.14002e-09
6.27159e-10
3.31599e-10
1.68505e-10
8.22949e-11
3.86265e-11
1.74239e-11
7.55348e-12
3.14692e-12
1.25995e-12
4.84785e-13
1.79248e-13
6.36378e-14
2.12864e-14
1.00045e-14
0
0
0
0
0
0
0
0
0
0
0
0
0
0
0
0
0
0
0
0
0
0
0
0
0
0
0
0
0
0
0
0
3.90517e-20
1.68174e-19
6.97347e-19
2.78405e-18
1.07008e-17
3.95955e-17
1.41038e-16
4.83573e-16
1.59589e-15
5.06917e-15
1.54968e-14
4.55927e-14
1.29086e-13
3.51704e-13
9.22098e-13
2.32659e-12
5.65355e-12
1.32775e-11
3.04994e-11
6.86058e-11
1.49193e-10
3.12072e-10
6.27859e-10
1.21493e-09
2.26105e-09
4.04685e-09
6.96562e-09
1.15298e-08
1.83524e-08
2.80904e-08
4.13431e-08
5.85082e-08
7.96136e-08
1.04161e-07
1.31025e-07
1.58464e-07
1.84255e-07
2.05974e-07
2.21362e-07
2.28707e-07
2.2716e-07
2.16898e-07
1.99085e-07
1.75661e-07
1.48991e-07
1.21473e-07
9.51988e-08
7.17146e-08
5.19278e-08
3.61412e-08
2.41774e-08
1.55458e-08
9.60746e-09
5.70675e-09
3.25797e-09
1.78764e-09
9.42712e-10
4.77793e-10
2.32733e-10
1.0895e-10
4.90163e-11
2.11931e-11
8.80612e-12
3.51645e-12
1.34943e-12
4.97633e-13
1.7624e-13
5.89451e-14
2.78299e-14
0
0
0
0
0
0
0
0
0
0
0
0
0
0
0
0
0
0
0
0
0
0
0
0
0
0
0
0
0
0
0
2.4263e-20
1.09065e-19
4.71995e-19
1.96642e-18
7.88635e-18
3.04447e-17
1.13125e-16
4.04572e-16
1.39252e-15
4.61268e-15
1.47039e-14
4.51045e-14
1.33136e-13
3.78133e-13
1.03335e-12
2.71704e-12
6.87405e-12
1.67432e-11
3.93816e-11
9.04773e-11
2.03342e-10
4.41672e-10
9.22687e-10
1.85385e-09
3.58218e-09
6.65666e-09
1.18956e-08
2.0442e-08
3.37796e-08
5.36744e-08
8.20069e-08
1.20473e-07
1.70169e-07
2.31102e-07
3.01756e-07
3.78811e-07
4.57191e-07
5.30482e-07
5.91742e-07
6.34564e-07
6.5417e-07
6.48293e-07
6.17602e-07
5.65583e-07
4.97882e-07
4.213e-07
3.42678e-07
2.67918e-07
2.01342e-07
1.45437e-07
1.00977e-07
6.7385e-08
4.32212e-08
2.6645e-08
1.57876e-08
8.99062e-09
4.92076e-09
2.58845e-09
1.30859e-09
6.35804e-10
2.96887e-10
1.3323e-10
5.74583e-11
2.38143e-11
9.48534e-12
3.63072e-12
1.33552e-12
4.71855e-13
1.57784e-13
7.4803e-14
0
0
0
0
0
0
0
0
0
0
0
0
0
0
0
0
0
0
0
0
0
0
0
0
0
0
0
0
0
0
1.37981e-20
6.47654e-20
2.92629e-19
1.27268e-18
5.32748e-18
2.14637e-17
8.3223e-17
3.10541e-16
1.1151e-15
3.85303e-15
1.28107e-14
4.09828e-14
1.26147e-13
3.73575e-13
1.06437e-12
2.91745e-12
7.69312e-12
1.95164e-11
4.76512e-11
1.12263e-10
2.57998e-10
5.79415e-10
1.25722e-09
2.62349e-09
5.26477e-09
1.01601e-08
1.88546e-08
3.36458e-08
5.77328e-08
9.52535e-08
1.51111e-07
2.30491e-07
3.38025e-07
4.76615e-07
6.46104e-07
8.42061e-07
1.05507e-06
1.27089e-06
1.4717e-06
1.63832e-06
1.75326e-06
1.80365e-06
1.78365e-06
1.69556e-06
1.54936e-06
1.36089e-06
1.149e-06
9.32468e-07
7.27381e-07
5.45377e-07
3.93037e-07
2.72249e-07
1.81255e-07
1.15984e-07
7.13323e-08
4.21647e-08
2.39542e-08
1.30792e-08
6.8634e-09
3.46141e-09
1.67772e-09
7.81504e-10
3.49853e-10
1.50515e-10
6.22309e-11
2.47266e-11
9.44164e-12
3.46458e-12
1.22127e-12
4.08163e-13
1.94096e-13
0
0
0
0
0
0
0
0
0
0
0
0
0
0
0
0
0
0
0
0
0
0
0
0
0
0
0
0
0
0
3.51927e-20
1.66081e-19
7.54301e-19
3.29692e-18
1.38672e-17
5.61261e-17
2.18584e-16
8.19093e-16
2.95318e-15
1.0244e-14
3.41871e-14
1.09761e-13
3.39011e-13
1.00726e-12
2.8789e-12
7.91495e-12
2.09314e-11
5.32455e-11
1.30324e-10
3.07566e-10
7.07153e-10
1.58723e-09
3.44092e-09
7.1733e-09
1.438e-08
2.77193e-08
5.1378e-08
9.15656e-08
1.56905e-07
2.58512e-07
4.09499e-07
6.23655e-07
9.1316e-07
1.28544e-06
1.7396e-06
2.26325e-06
2.83071e-06
3.40351e-06
3.93389e-06
4.37094e-06
4.6685e-06
4.79317e-06
4.73048e-06
4.48766e-06
4.09222e-06
3.58689e-06
3.02198e-06
2.44722e-06
1.90484e-06
1.42509e-06
1.02476e-06
7.0825e-07
4.70475e-07
3.00376e-07
1.84318e-07
1.08703e-07
6.16142e-08
3.35646e-08
1.75728e-08
8.84204e-09
4.27577e-09
1.98711e-09
8.8751e-10
3.80946e-10
1.57141e-10
6.2294e-11
2.3732e-11
8.68853e-12
3.05604e-12
1.02006e-12
4.8536e-13
0
0
0
0
0
0
0
0
0
0
0
0
0
0
0
0
0
0
0
0
0
0
0
0
0
0
0
0
0
1.74867e-20
8.62283e-20
4.09145e-19
1.86797e-18
8.20561e-18
3.46802e-17
1.41015e-16
5.51626e-16
2.0759e-15
7.51508e-15
2.61706e-14
8.76663e-14
2.82474e-13
8.75462e-13
2.60975e-12
7.48258e-12
2.06341e-11
5.47254e-11
1.39593e-10
3.42524e-10
8.09836e-10
1.86306e-09
4.17991e-09
9.05479e-09
1.88608e-08
3.77746e-08
7.27426e-08
1.34684e-07
2.39757e-07
4.10341e-07
6.75194e-07
1.0681e-06
1.6244e-06
2.37497e-06
3.33811e-06
4.51039e-06
5.85858e-06
7.31523e-06
8.78041e-06
1.01309e-05
1.12362e-05
1.19791e-05
1.2276e-05
1.20924e-05
1.14495e-05
1.04201e-05
9.1152e-06
7.66413e-06
6.19382e-06
4.81114e-06
3.59193e-06
2.57746e-06
1.77762e-06
1.17832e-06
7.50692e-07
4.59653e-07
2.70498e-07
1.5299e-07
8.31613e-08
4.34446e-08
2.18124e-08
1.0525e-08
4.8808e-09
2.17523e-09
9.31667e-10
3.83493e-10
1.51703e-10
5.76721e-11
2.10704e-11
7.39623e-12
2.46186e-12
1.16616e-12
0
0
0
0
0
0
0
0
0
0
0
0
0
0
0
0
0
0
0
0
0
0
0
0
0
0
0
0
0
4.09254e-20
2.02961e-19
9.68324e-19
4.44425e-18
1.96215e-17
8.3331e-17
3.40415e-16
1.33759e-15
5.05524e-15
1.83759e-14
6.42441e-14
2.16016e-13
6.98547e-13
2.17246e-12
6.49752e-12
1.86884e-11
5.16913e-11
1.37492e-10
3.51678e-10
8.65112e-10
2.04932e-09
4.71793e-09
1.0582e-08
2.29094e-08
4.7686e-08
9.54311e-08
1.83612e-07
3.39638e-07
6.03986e-07
1.03258e-06
1.69709e-06
2.68137e-06
4.07263e-06
5.9464e-06
8.34615e-06
1.12607e-05
1.46046e-05
1.82074e-05
2.18191e-05
2.51335e-05
2.78286e-05
2.96173e-05
3.02979e-05
2.97912e-05
2.81557e-05
2.55768e-05
2.23316e-05
1.87408e-05
1.51163e-05
1.17189e-05
8.73197e-06
6.2534e-06
4.30424e-06
2.84742e-06
1.81041e-06
1.10629e-06
6.49724e-07
3.66735e-07
1.98947e-07
1.03724e-07
5.19737e-08
2.50289e-08
1.15839e-08
5.15255e-09
2.20263e-09
9.04926e-10
3.57302e-10
1.35584e-10
4.94459e-11
1.73264e-11
5.73519e-12
2.67904e-12
0
0
0
0
0
0
0
0
0
0
0
0
0
0
0
0
0
0
0
0
0
0
0
0
0
0
0
0
1.77422e-20
9.20087e-20
4.58933e-19
2.20169e-18
1.01587e-17
4.50794e-17
1.92385e-16
7.89591e-16
3.11648e-15
1.1829e-14
4.31758e-14
1.51543e-13
5.11479e-13
1.65999e-12
5.18041e-12
1.55451e-11
4.48531e-11
1.24437e-10
3.31943e-10
8.51389e-10
2.09975e-09
4.98394e-09
1.14837e-08
2.57532e-08
5.57278e-08
1.15932e-07
2.31856e-07
4.45767e-07
8.23887e-07
1.46383e-06
2.50015e-06
4.10482e-06
6.47835e-06
9.82819e-06
1.43323e-05
2.00903e-05
2.70694e-05
3.50583e-05
4.36434e-05
5.22223e-05
6.00621e-05
6.6397e-05
7.055e-05
7.20513e-05
7.07264e-05
6.67286e-05
6.05105e-05
5.27396e-05
4.418e-05
3.55711e-05
2.75264e-05
2.04728e-05
1.46347e-05
1.00546e-05
6.63926e-06
4.21353e-06
2.57007e-06
1.50665e-06
8.4889e-07
4.59684e-07
2.39241e-07
1.19668e-07
5.75298e-08
2.65812e-08
1.18039e-08
5.03785e-09
2.0665e-09
8.14699e-10
3.08697e-10
1.12419e-10
3.934e-11
1.28922e-11
5.84265e-12
0
0
0
0
0
0
0
0
0
0
0
0
0
0
0
0
0
0
0
0
0
0
0
0
0
0
0
0
3.80863e-20
1.9871e-19
9.96925e-19
4.80937e-18
2.23094e-17
9.9507e-17
4.26754e-16
1.75975e-15
6.97703e-15
2.65966e-14
9.74797e-14
3.43501e-13
1.16376e-12
3.79065e-12
1.18707e-11
3.57392e-11
1.03447e-10
2.87865e-10
7.70116e-10
1.98069e-09
4.89756e-09
1.16489e-08
2.68666e-08
6.02501e-08
1.30333e-07
2.71022e-07
5.41748e-07
1.04095e-06
1.92261e-06
3.41334e-06
5.8249e-06
9.55462e-06
1.50643e-05
2.28293e-05
3.32538e-05
4.65574e-05
6.26518e-05
8.10351e-05
0.000100741
0.000120372
0.000138241
0.000152593
0.000161889