# vtk DataFile Version 2.0
Structured output generated by Nextsim
ASCII
DATASET STRUCTURED_POINTS
DIMENSIONS 101 101 1
ORIGIN 0 0 0
SPACING 0.01 0.01 0.01
POINT_DATA 10201
SCALARS interpolate DOUBLE 1
LOOKUP_TABLE default
0
0
0
0
0
0
0
0
0
0
0
0
0
0
0
0
0
0
0
0
0
0
0
0
0
0
0
0
0
0
0
0
0
0
0
0
0
0
0
0
0
0
0
0
0
0
0
0
0
0
0
0
0
0
0
0
0
0
0
0
0
0
0
0
0
0
0
0
0
0
0
0
0
0
0
0
0
0
0
0
0
0
0
0
0
0
0
0
0
0
0
0
0
0
0
0
0
0
0
0
0
0
0
0
0
0
0
0
0
0
0
0
0
0
0
0
0
0
0
0
0
0
0
0
0
0
0
0
0
0
0
0
0
0
0
0
0
0
0
0
0
0
0
0
0
0
0
0
0
0
0
0
0
0
0
0
0
0
0
0
0
0
0
0
0
0
0
0
0
0
0
0
0
0
0
0
0
0
0
0
0
0
0
0
0
0
0
0
0
0
0
0
0
0
0
0
0
0
0
0
0
0
0
0
0
0
0
0
0
0
0
0
0
0
0
0
0
0
0
0
0
0
0
0
0
0
0
0
0
0
0
0
0
0
0
0
0
0
0
0
0
0
0
0
0
0
0
0
0
0
0
0
0
0
0
0
0
0
0
0
0
0
0
0
0
0
0
0
0
0
0
0
0
0
0
0
0
0
0
0
0
0
0
0
0
0
0
0
0
0
0
0
0
0
0
0
0
0
0
0
0
0
0
0
0
0
0
0
0
0
0
0
0
0
0
0
0
0
0
0
0
0
0
0
0
0
0
0
0
0
0
0
0
0
0
0
0
0
0
0
0
0
0
0
0
0
0
0
0
0
0
0
0
0
0
0
0
0
0
0
0
0
0
0
0
0
0
2.17767e-20
4.80262e-20
8.15666e-20
9.23965e-20
5.47422e-20
2.14012e-20
1.24165e-20
0
0
0
0
0
0
0
0
0
0
0
0
0
0
0
0
0
0
0
0
0
0
0
0
0
0
0
0
0
0
0
0
0
0
0
0
0
0
0
0
0
0
0
0
0
0
0
0
0
0
0
0
0
0
0
0
0
0
0
0
0
0
0
0
0
0
0
0
0
0
0
0
0
0
0
0
0
0
0
0
0
0
0
0
0
0
0
0
0
0
0
2.69669e-20
9.30713e-20
2.69604e-19
6.78399e-19
1.43879e-18
2.36819e-18
2.61812e-18
1.5218e-18
5.76748e-19
3.29247e-19
1.17276e-19
5.5921e-20
0
0
0
0
0
0
0
0
0
0
0
0
0
0
0
0
0
0
0
0
0
0
0
0
0
0
0
0
0
0
0
0
0
0
0
0
0
0
0
0
0
0
0
0
0
0
0
0
0
0
0
0
0
0
0
0
0
0
0
0
0
0
0
0
0
0
0
0
0
0
0
0
0
0
0
0
0
0
0
0
0
0
0
0
0
0
0
4.49582e-20
2.25819e-19
9.18734e-19
3.02586e-18
8.31721e-18
1.99345e-17
4.06004e-17
6.46997e-17
6.97763e-17
3.98121e-17
1.46651e-17
8.24134e-18
2.87026e-18
1.35557e-18
1.08914e-19
0
0
0
0
0
0
0
0
0
0
0
0
0
0
0
0
0
0
0
0
0
0
0
0
0
0
0
0
0
0
0
0
0
0
0
0
0
0
0
0
0
0
0
0
0
0
0
0
0
0
0
0
0
0
0
0
0
0
0
0
0
0
0
0
0
0
0
0
0
0
0
0
0
0
0
0
0
0
0
0
0
0
0
0
3.68875e-20
2.61614e-19
1.55137e-18
7.53979e-18
2.95088e-17
9.27262e-17
2.41558e-16
5.50527e-16
1.07521e-15
1.65724e-15
1.7427e-15
9.76636e-16
3.50698e-16
1.94111e-16
6.62675e-17
3.09998e-17
2.5197e-18
1.05759e-20
0
0
0
0
0
0
0
0
0
0
0
0
0
0
0
0
0
0
0
0
0
0
0
0
0
0
0
0
0
0
0
0
0
0
0
0
0
0
0
0
0
0
0
0
0
0
0
0
0
0
0
0
0
0
0
0
0
0
0
0
0
0
0
0
0
0
0
0
0
0
0
0
0
0
0
0
0
0
0
0
0
1.6627e-20
1.56105e-19
1.26609e-18
8.73176e-18
5.02528e-17
2.36266e-16
8.89588e-16
2.66686e-15
6.57723e-15
1.42299e-14
2.66128e-14
3.96332e-14
4.06194e-14
2.23741e-14
7.85875e-15
4.28678e-15
1.43864e-15
6.66665e-16
5.49722e-17
2.4777e-19
0
0
0
0
0
0
0
0
0
0
0
0
0
0
0
0
0
0
0
0
0
0
0
0
0
0
0
0
0
0
0
0
0
0
0
0
0
0
0
0
0
0
0
0
0
0
0
0
0
0
0
0
0
0
0
0
0
0
0
0
0
0
0
0
0
0
0
0
0
0
0
0
0
0
0
0
0
0
0
0
5.40364e-20
5.64566e-19
5.15838e-18
4.06796e-17
2.72498e-16
1.52077e-15
6.91383e-15
2.50439e-14
7.16273e-14
1.67087e-13
3.4261e-13
6.12695e-13
8.80741e-13
8.7937e-13
4.76472e-13
1.64342e-13
8.8408e-14
2.92617e-14
1.34344e-14
1.12738e-15
5.48991e-18
2.4096e-20
0
0
0
0
0
0
0
0
0
0
0
0
0
0
0
0
0
0
0
0
0
0
0
0
0
0
0
0
0
0
0
0
0
0
0
0
0
0
0
0
0
0
0
0
0
0
0
0
0
0
0
0
0
0
0
0
0
0
0
0
0
0
0
0
0
0
0
0
0
0
0
0
0
0
0
0
0
1.19046e-20
1.53537e-19
1.7652e-18
1.79269e-17
1.59094e-16
1.21774e-15
7.91079e-15
4.27618e-14
1.87861e-13
6.54577e-13
1.7862e-12
3.93805e-12
7.64107e-12
1.30481e-11
1.80862e-11
1.75852e-11
9.38194e-12
3.19199e-12
1.69486e-12
5.55328e-13
2.52661e-13
2.16547e-14
1.14716e-16
5.41376e-19
0
0
0
0
0
0
0
0
0
0
0
0
0
0
0
0
0
0
0
0
0
0
0
0
0
0
0
0
0
0
0
0
0
0
0
0
0
0
0
0
0
0
0
0
0
0
0
0
0
0
0
0
0
0
0
0
0
0
0
0
0
0
0
0
0
0
0
0
0
0
0
0
0
0
0
0
2.7574e-20
3.85035e-19
4.82444e-18
5.38283e-17
5.30044e-16
4.55762e-15
3.37809e-14
2.12392e-13
1.11025e-12
4.70865e-12
1.57768e-11
4.1079e-11
8.55433e-11
1.56828e-10
2.55374e-10
3.40987e-10
3.22753e-10
1.69754e-10
5.72684e-11
3.00442e-11
9.78701e-12
4.41424e-12
3.87972e-13
2.25333e-15
1.15031e-17
0
0
0
0
0
0
0
0
0
0
0
0
0
0
0
0
0
0
0
0
0
0
0
0
0
0
0
0
0
0
0
0
0
0
0
0
0
0
0
0
0
0
0
0
0
0
0
0
0
0
0
0
0
0
0
0
0
0
0
0
0
0
0
0
0
0
0
0
0
0
0
0
0
0
0
5.73417e-20
8.59942e-19
1.16483e-17
1.41379e-16
1.52611e-15
1.45241e-14
1.2062e-13
8.63153e-13
5.2385e-12
2.6425e-11
1.08033e-10
3.47871e-10
8.64309e-10
1.6992e-09
2.93924e-09
4.55797e-09
5.85705e-09
5.39554e-09
2.80193e-09
9.43048e-10
4.89448e-10
1.59305e-10
7.12627e-11
6.45302e-12
4.14568e-14
2.30487e-16
0
0
0
0
0
0
0
0
0
0
0
0
0
0
0
0
0
0
0
0
0
0
0
0
0
0
0
0
0
0
0
0
0
0
0
0
0
0
0
0
0
0
0
0
0
0
0
0
0
0
0
0
0
0
0
0
0
0
0
0
0
0
0
0
0
0
0
0
0
0
0
0
0
0
1.10355e-19
1.72784e-18
2.50987e-17
3.28697e-16
3.85049e-15
4.00551e-14
3.66947e-13
2.93137e-12
2.01738e-11
1.17773e-10
5.71653e-10
2.24832e-09
6.95059e-09
1.64778e-08
3.0573e-08
4.98324e-08
7.35003e-08
9.08137e-08
8.1411e-08
4.18266e-08
1.41461e-08
7.2752e-09
2.37966e-09
1.0565e-09
9.91003e-11
7.11462e-13
4.34097e-15
0
0
0
0
0
0
0
0
0
0
0
0
0
0
0
0
0
0
0
0
0
0
0
0
0
0
0
0
0
0
0
0
0
0
0
0
0
0
0
0
0
0
0
0
0
0
0
0
0
0
0
0
0
0
0
0
0
0
0
0
0
0
0
0
0
0
0
0
0
0
0
0
1.20123e-20
2.01747e-19
3.22165e-18
4.88024e-17
6.84198e-16
8.62827e-15
9.71166e-14
9.6886e-13
8.49981e-12
6.49729e-11
4.27848e-10
2.39155e-09
1.11267e-08
4.19793e-08
1.24398e-07
2.81324e-07
4.92509e-07
7.55534e-07
1.05869e-06
1.25672e-06
1.09645e-06
5.5882e-07
1.91558e-07
9.78275e-08
3.23769e-08
1.42798e-08
1.3963e-09
1.13356e-11
7.65695e-14
0
0
0
0
0
0
0
0
0
0
0
0
0
0
0
0
0
0
0
0
0
0
0
0
0
0
0
0
0
0
0
0
0
0
0
0
0
0
0
0
0
0
0
0
0
0
0
0
0
0
0
0
0
0
0
0
0
0
0
0
0
0
0
0
0
0
0
0
0
0
0
2.05472e-20
3.51781e-19
5.72513e-18
8.83668e-17
1.29023e-15
1.73844e-14
2.10096e-13
2.25992e-12
2.14923e-11
1.79397e-10
1.30333e-09
8.15721e-09
4.33885e-08
1.92471e-07
6.93797e-07
1.96593e-06
4.23855e-06
7.00075e-06
1.00972e-05
1.34279e-05
1.53037e-05
1.30006e-05
6.59721e-06
2.31603e-06
1.17783e-06
3.97626e-07
1.74447e-07
1.79153e-08
1.6677e-10
1.25966e-12
0
0
0
0
0
0
0
0
0
0
0
0
0
0
0
0
0
0
0
0
0
0
0
0
0
0
0
0
0
0
0
0
0
0
0
0
0
0
0
0
0
0
0
0
0
0
0
0
0
0
0
0
0
0
0
0
0
0
0
0
0
0
0
0
0
0
0
0
0
0
3.36354e-20
5.8688e-19
9.73054e-18
1.5295e-16
2.27331e-15
3.18575e-14
4.10556e-13
4.72903e-12
4.83102e-11
4.3487e-10
3.42613e-09
2.34532e-08
1.38285e-07
6.94074e-07
2.91429e-06
9.97931e-06
2.69387e-05
5.53052e-05
8.6176e-05
0.00011676
0.000147245
0.000161056
0.000133348
6.77285e-05
2.46632e-05
1.25382e-05
4.35985e-06
1.90616e-06
2.07459e-07
2.25123e-09
1.92363e-11
0
0
0
0
0
0
0
0
0
0
0
0
0
0
0
0
0
0
0
0
0
0
0
0
0
0
0
0
0
0
0
0
0
0
0
0
0
0
0
0
0
0
0
0
0
0
0
0
0
0
0
0
0
0
0
0
0
0
0
0
0
0
0
0
0
0
0
0
0
5.25909e-20
9.35703e-19
1.58117e-17
2.53167e-16
3.8307e-15
5.46154e-14
7.3128e-13
8.9676e-12
9.7878e-11
9.4319e-10
7.97211e-09
5.87267e-08
3.74717e-07
2.05734e-06
9.63243e-06
3.78905e-05
0.000122226
0.000312505
0.000609584
0.000896018
0.00113986
0.00136242
0.00143024
0.00115636
0.000592406
0.00022736
0.000116171
4.21043e-05
1.8393e-05
2.14492e-06
2.76767e-08
2.71191e-10
0
0
0
0
0
0
0
0
0
0
0
0
0
0
0
0
0
0
0
0
0
0
0
0
0
0
0
0
0
0
0
0
0
0
0
0
0
0
0
0
0
0
0
0
0
0
0
0
0
0
0
0
0
0
0
0
0
0
0
0
0
0
0
0
0
0
0
0
7.77056e-20
1.41203e-18
2.43553e-17
3.97781e-16
6.13512e-15
8.90884e-14
1.21385e-12
1.54593e-11
1.79464e-10
1.8455e-09
1.66636e-08
1.31167e-07
8.9412e-07
5.24965e-06
2.64371e-05
0.000113642
0.000412625
0.00123826
0.00297072
0.0054836
0.00760189
0.0090798
0.0102865
0.0103726
0.00821916
0.00429773
0.00177408
0.000918266
0.000352027
0.000154243
1.9538e-05
3.07141e-07
3.50699e-09
0
0
0
0
0
0
0
0
0
0
0
0
0
0
0
0
0
0
0
0
0
0
0
0
0
0
0
0
0
0
0
0
0
0
0
0
0
0
0
0
0
0
0
0
0
0
0
0
0
0
0
0
0
0
0
0
0
0
0
0
0
0
0
0
0
0
0
1.06067e-19
1.97344e-18
3.48313e-17
5.81744e-16
9.1686e-15
1.35935e-13
1.88928e-12
2.45172e-11
2.95723e-10
3.23424e-09
3.11768e-08
2.62242e-07
1.90813e-06
1.19135e-05
6.34503e-05
0.000287617
0.00111044
0.00364087
0.00996813
0.0220876
0.0382837
0.050023
0.056152
0.0603658
0.0586154
0.0458399
0.0249397
0.0113688
0.00603257
0.00249185
0.00110145
0.000154204
3.04383e-06
4.12873e-08
0
0
0
0
0
0
0
0
0
0
0
0
0
0
0
0
0
0
0
0
0
0
0
0
0
0
0
0
0
0
0
0
0
0
0
0
0
0
0
0
0
0
0
0
0
0
0
0
0
0
0
0
0
0
0
0
0
0
0
0
0
0
0
0
0
0
1.28927e-19
2.46341e-18
4.46294e-17
7.64694e-16
1.23564e-14
1.87692e-13
2.67038e-12
3.54397e-11
4.36671e-10
4.96825e-09
5.09661e-08
4.58636e-07
3.57818e-06
2.39323e-05
0.000135693
0.000646409
0.00258001
0.00868272
0.0248684
0.0601813
0.119684
0.191666
0.235631
0.249404
0.25539
0.240307
0.188184
0.110109
0.0573714
0.031806
0.0144938
0.00652204
0.00103228
2.65839e-05
4.38518e-07
0
0
0
0
0
0
0
0
0
0
0
0
0
0
0
0
0
0
0
0
0
0
0
0
0
0
0
0
0
0
0
0
0
0
0
0
0
0
0
0
0
0
0
0
0
0
0
0
0
0
0
0
0
0
0
0
0
0
0
0
0
0
0
0
0
1.32199e-19
2.60192e-18
4.85419e-17
8.56168e-16
1.42349e-14
2.22372e-13
3.25183e-12
4.43267e-11
5.60519e-10
6.53832e-09
6.9894e-08
6.69773e-07
5.60802e-06
4.04658e-05
0.000247968
0.00126964
0.00534818
0.0183692
0.0518314
0.123278
0.250082
0.422099
0.60103
0.691609
0.697403
0.688064
0.638156
0.517271
0.345272
0.214628
0.128316
0.0664661
0.0309085
0.0057006
0.000201256
4.1559e-06
1.87658e-20
1.66779e-20
1.42359e-20
1.16796e-20
0
0
0
0
0
0
0
0
0
0
0
0
0
0
0
0
0
0
0
0
0
0
0
0
0
0
0
0
0
0
0
0
0
0
0
0
0
0
0
0
0
0
0
0
0
0
0
0
0
0
0
0
0
0
0
0
0
0
0
0
1.05352e-19
2.1422e-18
4.12825e-17
7.51995e-16
1.291e-14
2.08193e-13
3.14196e-12
4.41854e-11
5.7619e-10
6.92767e-09
7.62849e-08
7.63254e-07
6.80597e-06
5.28769e-05
0.000352231
0.00197453
0.00910642
0.0336789
0.0976053
0.22079
0.405529
0.635084
0.82182
0.94272
0.999201
0.995999
0.983351
0.944141
0.854003
0.709734
0.546167
0.371552
0.226609
0.111805
0.0250392
0.00129312
3.46676e-05
1.08652e-19
9.61072e-20
8.15906e-20
6.65784e-20
5.22182e-20
3.93632e-20
2.85185e-20
1.98571e-20
1.32876e-20
0
0
0
0
0
0
0
0
0
0
0
0
0
0
0
0
0
0
0
0
0
0
0
0
0
0
0
0
0
0
0
0
0
0
0
0
0
0
0
0
0
0
0
0
0
0
0
0
0
0
0
0
0
0
5.66808e-20
1.19422e-18
2.38472e-17
4.50145e-16
8.00854e-15
1.33846e-13
2.09356e-12
3.05173e-11
4.12535e-10
5.14241e-09
5.87186e-08
6.09339e-07
5.69229e-06
4.7118e-05
0.000339102
0.00208299
0.010672
0.0442714
0.143223
0.34604
0.605717
0.803856
0.936341
1
0.999998
0.999985
0.999894
0.999358
0.996676
0.985695
0.950325
0.865205
0.719126
0.529707
0.290836
0.0835165
0.00686094
0.000250184
6.09036e-19
5.36098e-19
4.5273e-19
3.67497e-19
2.86732e-19
2.15025e-19
1.54982e-19
1.07359e-19
7.14738e-20
4.57296e-20
2.81175e-20
1.6614e-20
0
0
0
0
0
0
0
0
0
0
0
0
0
0
0
0
0
0
0
0
0
0
0
0
0
0
0
0
0
0
0
0
0
0
0
0
0
0
0
0
0
0
0
0
0
0
0
0
0
0
1.52358e-20
3.34053e-19
6.94473e-18
1.36544e-16
2.53176e-15
4.41276e-14
7.20389e-13
1.097e-11
1.5509e-10
2.02461e-09
2.42512e-08
2.64554e-07
2.60505e-06
2.29056e-05
0.000177436
0.00119051
0.00677136
0.0317498
0.118267
0.333292
0.670119
0.929082
1
1
1
1
1
0.999998
0.999986
0.999897
0.999327
0.996218
0.98212
0.930954
0.790005
0.518758
0.20186
0.0290008
0.00152728
3.30763e-18
2.89415e-18
2.43163e-18
1.96383e-18
1.52449e-18
1.13749e-18
8.15758e-19
5.62276e-19
3.72478e-19
2.37139e-19
1.45092e-19
8.53129e-20
4.82061e-20
2.61756e-20
1.3658e-20
0
0
0
0
0
0
0
0
0
0
0
0
0
0
0
0
0
0
0
0
0
0
0
0
0
0
0
0
0
0
0
0
0
0
0
0
0
0
0
0
0
0
0
0
0
0
0
2.53715e-20
5.6136e-19
1.17768e-17
2.33653e-16
4.37124e-15
7.68608e-14
1.2655e-12
1.94285e-11
2.76775e-10
3.63816e-09
4.38367e-08
4.80391e-07
4.74307e-06
4.1708e-05
0.00032106
0.00211753
0.0116823
0.0522595
0.181853
0.466069
0.826627
1
1
1
1
1
1
1
0.999998
0.999979
0.999835
0.998899
0.993742
0.970576
0.889621
0.68529
0.35723
0.0933361
0.00765315
1.73596e-17
1.51184e-17
1.26395e-17
1.01577e-17
7.84667e-18
5.82621e-18
4.15799e-18
2.85211e-18
1.88027e-18
1.19134e-18
7.25436e-19
4.24522e-19
2.38742e-19
1.29025e-19
6.7008e-20
3.34408e-20
1.60367e-20
0
0
0
0
0
0
0
0
0
0
0
0
0
0
0
0
0
0
0
0
0
0
0
0
0
0
0
0
0
0
0
0
0
0
0
0
0
0
0
0
0
0
0
0
0
7.84095e-20
1.75846e-18
3.73016e-17
7.46284e-16
1.40367e-14
2.47304e-13
4.06456e-12
6.20244e-11
8.7401e-10
1.13011e-08
1.33084e-07
1.4147e-06
1.34288e-05
0.00011232
0.000813767
0.00499512
0.0252411
0.101035
0.304145
0.645065
0.920995
1
1
1
1
1
1
1
0.999999
0.999992
0.999934
0.999539
0.997222
0.985945
0.942058
0.812701
0.547249
0.218482
0.0301967
8.82855e-17
7.64034e-17
6.35708e-17
5.08451e-17
3.90906e-17
2.88878e-17
2.05192e-17
1.40088e-17
9.19219e-18
5.79705e-18
3.5136e-18
2.04665e-18
1.1457e-18
6.16343e-19
3.18633e-19
1.58294e-19
7.55676e-20
3.46653e-20
1.52803e-20
0
0
0
0
0
0
0
0
0
0
0
0
0
0
0
0
0
0
0
0
0
0
0
0
0
0
0
0
0
0
0
0
0
0
0
0
0
0
0
0
0
0
0
1.24277e-19
2.81967e-18
6.05062e-17
1.22442e-15
2.32901e-14
4.14867e-13
6.89151e-12
1.06239e-10
1.51137e-09
1.97116e-08
2.33853e-07
2.50004e-06
2.38083e-05
0.000199084
0.00143041
0.00859068
0.041754
0.157272
0.432824
0.809968
1
1
1
1
1
1
1
1
1
0.999999
0.999987
0.999895
0.999242
0.995349
0.976435
0.904986
0.710298
0.374185
0.0884516
4.33435e-16
3.73478e-16
3.09313e-16
2.46253e-16
1.88453e-16
1.38628e-16
9.80187e-17
6.66141e-17
4.35122e-17
2.73169e-17
1.64822e-17
9.55773e-18
5.32643e-18
2.85267e-18
1.46822e-18
7.26177e-19
3.45144e-19
1.57635e-19
6.91823e-20
2.91753e-20
1.1822e-20
0
0
0
0
0
0
0
0
0
0
0
0
0
0
0
0
0
0
0
0
0
0
0
0
0
0
0
0
0
0
0
0
0
0
0
0
0
0
0
0
1.58783e-20
3.87376e-19
8.9389e-18
1.94538e-16
3.98004e-15
7.62688e-14
1.36327e-12
2.26221e-11
3.46593e-10
4.87155e-09
6.23447e-08
7.19956e-07
7.42052e-06
6.73466e-05
0.000529106
0.00352213
0.0193098
0.0838171
0.272606
0.617031
0.911986
1
1
1
1
1
1
1
1
1
1
0.999995
0.999959
0.999685
0.997938
0.988664
0.949272
0.822664
0.541419
0.17758
2.05849e-15
1.76557e-15
1.4557e-15
1.15375e-15
8.79019e-16
6.43744e-16
4.53153e-16
3.06607e-16
1.99394e-16
1.2463e-16
7.48697e-17
4.32264e-17
2.39851e-17
1.27901e-17
6.55447e-18
3.22791e-18
1.52763e-18
6.94733e-19
3.03608e-19
1.27495e-19
5.14449e-20
1.99369e-20
0
0
0
0
0
0
0
0
0
0
0
0
0
0
0
0
0
0
0
0
0
0
0
0
0
0
0
0
0
0
0
0
0
0
0
0
0
0
0
2.11122e-20
5.18897e-19
1.20621e-17
2.64425e-16
5.44884e-15
1.05156e-13
1.89269e-12
3.16195e-11
4.87584e-10
6.89507e-09
8.87316e-08
1.02955e-06
1.06497e-05
9.68346e-05
0.000760179
0.0050393
0.027381
0.11675
0.366556
0.772821
1
1
1
1
1
1
1
1
1
1
1
0.999999
0.99999
0.99991
0.999289
0.995219
0.973663
0.886189
0.638244
0.229868
9.45137e-15
8.07039e-15
6.62521e-15
5.22834e-15
3.96621e-15
2.89215e-15
2.02716e-15
1.36573e-15
8.84379e-16
5.50427e-16
3.29259e-16
1.89296e-16
1.04592e-16
5.55398e-17
2.8343e-17
1.39e-17
6.5509e-18
2.96687e-18
1.29121e-18
5.39995e-19
2.16999e-19
8.37581e-20
3.08981e-20
1.03914e-20
0
0
0
0
0
0
0
0
0
0
0
0
0
0
0
0
0
0
0
0
0
0
0
0
0
0
0
0
0
0
0
0
0
0
0
0
0
1.09964e-20
2.7642e-19
6.58033e-18
1.47912e-16
3.12924e-15
6.2084e-14
1.15035e-12
1.98121e-11
3.15422e-10
4.61229e-09
6.14741e-08
7.40015e-07
7.95622e-06
7.53436e-05
0.000617388
0.00427662
0.0242638
0.107853
0.351807
0.764483
0.999993
1
1
1
1
1
1
1
1
1
1
0.999999
0.999993
0.999929
0.999412
0.995873
0.976313
0.893667
0.650471
0.23672
4.19388e-14
3.56631e-14
2.91546e-14
2.29117e-14
1.73084e-14
1.25688e-14
8.77317e-15
5.88616e-15
3.79585e-15
2.35276e-15
1.40161e-15
8.025e-16
4.41595e-16
2.33537e-16
1.18694e-16
5.79739e-17
2.72121e-17
1.22746e-17
5.3206e-18
2.21622e-18
8.87051e-19
3.41049e-19
1.25386e-19
4.214e-20
1.8863e-20
0
0
0
0
0
0
0
0
0
0
0
0
0
0
0
0
0
0
0
0
0
0
0
0
0
0
0
0
0
0
0
0
0
0
0
0
0
1.23381e-19
3.06023e-18
7.17518e-17
1.58487e-15
3.28561e-14
6.36604e-13
1.14724e-11
1.91223e-10
2.9288e-09
4.0902e-08
5.16034e-07
5.81541e-06
5.7722e-05
0.000495656
0.00359616
0.0213515
0.0991542
0.336741
0.755632
0.999846
0.999999
1
1
1
1
1
1
1
1
1
0.999999
0.999994
0.999938
0.999467
0.996139
0.977245
0.895786
0.65302
0.237863
1.79856e-13
1.52329e-13
1.24028e-13
9.70772e-14
7.30411e-14
5.28271e-14
3.6726e-14
2.45417e-14
1.57631e-14
9.73138e-15
5.77417e-15
3.29291e-15
1.80482e-15
9.507e-16
4.81282e-16
2.34149e-16
1.09475e-16
4.91879e-17
2.1238e-17
8.81201e-18
3.51339e-18
1.34567e-18
4.93094e-19
1.65618e-19
7.44156e-20
0
0
0
0
0
0
0
0
0
0
0
0
0
0
0
0
0
0
0
0
0
0
0
0
0
0
0
0
0
0
0
0
0
0
0
0
0
5.18426e-20
1.34579e-18
3.30957e-17
7.67189e-16
1.66972e-14
3.39729e-13
6.43052e-12
1.12599e-10
1.8119e-09
2.6587e-08
3.5244e-07
4.17284e-06
4.35063e-05
0.000392267
0.00298645
0.0185882
0.0903387
0.320007
0.743176
0.997539
0.999985
1
1
1
1
1
1
1
1
1
0.999999
0.999992
0.999921
0.999331
0.99523
0.972616
0.879744
0.621905
0.21895
7.4533e-13
6.28805e-13
5.09989e-13
3.97621e-13
2.98009e-13
2.14699e-13
1.48682e-13
9.89706e-14
6.33228e-14
3.89414e-14
2.3017e-14
1.30756e-14
7.13913e-15
3.74616e-15
1.8892e-15
9.15608e-16
4.26456e-16
1.90882e-16
8.21056e-17
3.39383e-17
1.34804e-17
5.14403e-18
1.87883e-18
6.30711e-19
2.84497e-19
0
0
0
0
0
0
0
0
0
0
0
0
0
0
0
0
0
0
0
0
0
0
0
0
0
0
0
0
0
0
0
0
0
0
0
0
0
2.10721e-20
5.62943e-19
1.45133e-17
3.53565e-16
8.09004e-15
1.73065e-13
3.44416e-12
6.34002e-11
1.07234e-09
1.65339e-08
2.30201e-07
2.8608e-06
3.12776e-05
0.000295321
0.00235153
0.0152969
0.0776497
0.287147
0.695895
0.972918
0.999731
0.999998
0.999999
1
1
1
1
1
1
1
0.999997
0.99998
0.999832
0.998692
0.991346
0.954281
0.820515
0.514779
0.156041
2.98406e-12
2.50811e-12
2.02657e-12
1.57413e-12
1.17536e-12
8.43607e-13
5.82023e-13
3.85974e-13
2.46028e-13
1.50733e-13
8.8761e-14
5.0236e-14
2.73261e-14
1.42857e-14
7.17758e-15
3.46577e-15
1.60826e-15
7.17206e-16
3.07363e-16
1.26582e-16
5.00951e-17
1.9047e-17
6.93485e-18
2.32687e-18
1.05382e-18
0
0
0
0
0
0
0
0
0
0
0
0
0
0
0
0
0
0
0
0
0
0
0
0
0
0
0
0
0
0
0
0
0
0
0
0
0
0
1.84751e-19
4.74592e-18
1.18614e-16
2.79258e-15
6.14497e-14
1.25714e-12
2.37776e-11
4.13134e-10
6.54477e-09
9.36946e-08
1.19921e-06
1.35431e-05
0.000132746
0.00110424
0.00756604
0.0410349
0.166539
0.467415
0.831702
0.996344
0.999966
0.99999
0.999994
0.999998
0.999999
1
0.999999
0.999999
0.999997
0.999984
0.999916
0.999505
0.996863
0.981803
0.913507
0.702154
0.328287
0.0551234
1.15407e-11
9.66507e-12
7.78127e-12
6.02224e-12
4.48039e-12
3.20415e-12
2.20262e-12
1.45541e-12
9.24354e-13
5.64275e-13
3.3108e-13
1.86705e-13
1.01193e-13
5.27119e-14
2.63889e-14
1.26964e-14
5.87058e-15
2.60862e-15
1.11395e-15
4.57128e-16
1.80267e-16
6.83001e-17
2.47907e-17
8.3147e-18
3.78132e-18
0
0
0
0
0
0
0
0
0
0
0
0
0
0
0
0
0
0
0
0
0
0
0
0
0
0
0
0
0
0
0
0
0
0
0
0
0
0
4.97568e-20
5.92907e-19
1.2071e-17
2.6357e-16
5.47924e-15
1.0638e-13
1.92294e-12
3.23787e-11
5.09139e-10
7.50241e-09
1.03794e-07
1.34307e-06
1.60337e-05
0.000169215
0.00150783
0.0109578
0.0619359
0.253243
0.6669
0.965531
0.999467
0.999849
0.999912
0.999975
0.999985
0.999994
0.999991
0.999985
0.999967
0.999882
0.999522
0.998108
0.991488
0.961716
0.845187
0.548132
0.171664
4.96567e-11
4.31082e-11
3.59769e-11
2.88642e-11
2.22615e-11
1.65043e-11
1.17619e-11
8.05724e-12
5.30533e-12
3.35774e-12
2.04259e-12
1.19428e-12
6.71134e-13
3.62482e-13
1.88161e-13
9.38702e-14
4.50065e-14
2.07378e-14
9.18302e-15
3.90782e-15
1.5981e-15
6.28032e-16
2.3714e-16
8.58146e-17
2.87719e-17
1.31408e-17
0
0
0
0
0
0
0
0
0
0
0
0
0
0
0
0
0
0
0
0
0
0
0
0
0
0
0
0
0
0
0
0
0
0
0
0
0
3.32511e-20
1.16882e-19
4.30444e-19
2.39853e-18
3.23001e-17
6.8341e-16
1.52421e-14
3.28192e-13
6.68892e-12
1.27476e-10
2.24335e-09
3.59665e-08
5.17771e-07
6.58789e-06
7.26604e-05
0.000678451
0.00520529
0.0314864
0.14147
0.432894
0.812882
0.993559
0.998063
0.998901
0.999671
0.999808
0.999924
0.999893
0.999842
0.999705
0.999134
0.997058
0.991277
0.97229
0.913858
0.728218
0.354505
0.0614087
1.79715e-10
1.55497e-10
1.29341e-10
1.03424e-10
7.94984e-11
5.87412e-11
4.17217e-11
2.84844e-11
1.86926e-11
1.17906e-11
7.14833e-12
4.16544e-12
2.33291e-12
1.25577e-12
6.49658e-13
3.23011e-13
1.54348e-13
7.08803e-14
3.12814e-14
1.32671e-14
5.40737e-15
2.11792e-15
7.97063e-16
2.87587e-16
9.63953e-17
4.42203e-17
0
0
0
0
0
0
0
0
0
0
0
0
0
0
0
0
0
0
0
0
0
0
0
0
0
0
0
0
0
0
0
0
0
0
0
0
3.31881e-20
1.20032e-19
4.18369e-19
1.4072e-18
4.61836e-18
1.60307e-17
8.631e-17
1.09088e-15
2.05192e-14
3.97193e-13
7.34735e-12
1.29165e-10
2.17015e-09
3.49595e-08
5.35769e-07
7.45112e-06
8.95807e-05
0.000906853
0.00747318
0.047723
0.218703
0.632374
0.94455
0.980954
0.989327
0.996523
0.997995
0.999188
0.998932
0.998568
0.997707
0.994441
0.983708
0.960879
0.905138
0.798647
0.555411
0.188821
6.99903e-10
6.27922e-10
5.41573e-10
4.49036e-10
3.57905e-10
2.74224e-10
2.01969e-10
1.42988e-10
9.73047e-11
6.36478e-11
4.00164e-11
2.41818e-11
1.40452e-11
7.8406e-12
4.2067e-12
2.1692e-12
1.07501e-12
5.12012e-13
2.34363e-13
1.03094e-13
4.35821e-14
1.77054e-14
6.91226e-15
2.59301e-15
9.32891e-16
3.12624e-16
1.44064e-16
0
0
0
0
0
0
0
0
0
0
0
0
0
0
0
0
0
0
0
0
0
0
0
0
0
0
0
0
0
0
0
0
0
0
0
3.04548e-20
1.14814e-19
4.17023e-19
1.45922e-18
4.91869e-18
1.59739e-17
5.0074e-17
1.5412e-16
5.34564e-16
3.74051e-15
6.5524e-14
1.46818e-12
3.20788e-11
6.49755e-10
1.19746e-08
1.97793e-07
2.87847e-06
3.61935e-05
0.000384172
0.00333588
0.0226652
0.112771
0.371057
0.705662
0.868221
0.925344
0.97166
0.98367
0.992922
0.991334
0.989297
0.985103
0.970508
0.926228
0.853204
0.714564
0.542292
0.302576
0.0684109
2.36774e-09
2.11778e-09
1.82097e-09
1.50519e-09
1.19602e-09
9.13544e-10
6.70748e-10
4.73389e-10
3.21141e-10
2.09404e-10
1.31243e-10
7.90612e-11
4.57758e-11
2.54734e-11
1.36242e-11
7.00323e-12
3.45973e-12
1.64262e-12
7.49506e-13
3.28663e-13
1.38502e-13
5.609e-14
2.18289e-14
8.16319e-15
2.92864e-15
9.8127e-16
4.54295e-16
0
0
0
0
0
0
0
0
0
0
0
0
0
0
0
0
0
0
0
0
0
0
0
0
0
0
0
0
0
0
0
0
0
0
2.56343e-20
1.00767e-19
3.81596e-19
1.39202e-18
4.89113e-18
1.65524e-17
5.39476e-17
1.69327e-16
5.11922e-16
1.49397e-15
4.28649e-15
1.37947e-14
8.18126e-14
1.08871e-12
1.88195e-11
3.3764e-10
6.22917e-09
1.10113e-07
1.7139e-06
2.29737e-05
0.000258722
0.00236562
0.016708
0.0843683
0.26837
0.456516
0.668642
0.836169
0.903221
0.952222
0.945381
0.937406
0.923028
0.877041
0.74694
0.586442
0.369895
0.18341
0.0735173
8.33239e-09
7.72982e-09
6.89364e-09
5.91014e-09
4.87087e-09
3.85892e-09
2.93878e-09
2.15129e-09
1.51376e-09
1.02383e-09
6.65591e-10
4.15897e-10
2.49779e-10
1.44182e-10
7.99912e-11
4.26524e-11
2.18579e-11
1.07653e-11
5.09562e-12
2.31798e-12
1.01335e-12
4.25735e-13
1.71888e-13
6.6691e-14
2.48645e-14
8.89599e-15
2.98038e-15
1.38639e-15
0
0
0
0
0
0
0
0
0
0
0
0
0
0
0
0
0
0
0
0
0
0
0
0
0
0
0
0
0
0
0
0
0
1.97811e-20
8.11027e-20
3.20308e-19
1.21847e-18
4.46419e-18
1.57514e-17
5.35201e-17
1.75107e-16
5.51638e-16
1.67317e-15
4.88591e-15
1.37374e-14
3.72212e-14
9.77009e-14
2.54818e-13
7.14185e-13
2.2834e-12
9.60269e-12
1.47998e-10
3.06413e-09
5.87559e-08
9.92223e-07
1.44298e-05
0.000176193
0.00174468
0.0133149
0.072293
0.243976
0.421437
0.62697
0.76963
0.753065
0.735285
0.706805
0.622675
0.398193
0.201323
0.0819006
2.73239e-08
2.73508e-08
2.63201e-08
2.43493e-08
2.16548e-08
1.85133e-08
1.52148e-08
1.20197e-08
9.12755e-09
6.66257e-09
4.67463e-09
3.15256e-09
2.04354e-09
1.2732e-09
7.62432e-10
4.38819e-10
2.42741e-10
1.29053e-10
6.59411e-11
3.23815e-11
1.52822e-11
6.93136e-12
3.02125e-12
1.26557e-12
5.09458e-13
1.97083e-13
7.32635e-14
2.61421e-14
8.75769e-15
4.0936e-15
0
0
0
0
0
0
0
0
0
0
0
0
0
0
0
0
0
0
0
0
0
0
0
0
0
0
0
0
0
0
0
0
1.39861e-20
5.98293e-20
2.46507e-19
9.78166e-19
3.73793e-18
1.37548e-17
4.87367e-17
1.66267e-16
5.46108e-16
1.72682e-15
5.25637e-15
1.54018e-14
4.34394e-14
1.17924e-13
3.08126e-13
7.75107e-13
1.87925e-12
4.40961e-12
1.01435e-11
2.29622e-11
5.2216e-11
1.6436e-10
1.61972e-09
3.00708e-08
5.48569e-07
8.70444e-06
0.000115946
0.0012498
0.0103347
0.0600996
0.209246
0.311073
0.299987
0.288463
0.270908
0.220938
0.0912401
7.46057e-08
8.05906e-08
8.36943e-08
8.35598e-08
8.02007e-08
7.39996e-08
6.56359e-08
5.59637e-08
4.58686e-08
3.61376e-08
2.73673e-08
1.99216e-08
1.39389e-08
9.37431e-09
6.05965e-09
3.76484e-09
2.24817e-09
1.2903e-09
7.11741e-10
3.77327e-10
1.92253e-10
9.41414e-11
4.43032e-11
2.00369e-11
8.70884e-12
3.63765e-12
1.46017e-12
5.63259e-13
2.08791e-13
7.43074e-14
2.4892e-14
1.16917e-14
0
0
0
0
0
0
0
0
0
0
0
0
0
0
0
0
0
0
0
0
0
0
0
0
0
0
0
0
0
0
0
0
4.04299e-20
1.73839e-19
7.19794e-19
2.86982e-18
1.10168e-17
4.07182e-17
1.44885e-16
4.96288e-16
1.63643e-15
5.19386e-15
1.58668e-14
4.66522e-14
1.32014e-13
3.59509e-13
9.42186e-13
2.37657e-12
5.77456e-12
1.35679e-11
3.12109e-11
7.03611e-11
1.53381e-10
3.21622e-10
6.48686e-10
1.2584e-09
2.34793e-09
4.21319e-09
7.27082e-09
1.20666e-08
1.92576e-08
2.95541e-08
4.36135e-08
6.18868e-08
8.44377e-08
1.1077e-07
1.39717e-07
1.69434e-07
1.97545e-07
2.21431e-07
2.3862e-07
2.47207e-07
2.46201e-07
2.35716e-07
2.16943e-07
1.91935e-07
1.63232e-07
1.33442e-07
1.04859e-07
7.92028e-08
5.75026e-08
4.01273e-08
2.69149e-08
1.73515e-08
1.07515e-08
6.40291e-09
3.66489e-09
2.0161e-09
1.06592e-09
5.41617e-10
2.64491e-10
1.24129e-10
5.59856e-11
2.42668e-11
1.01083e-11
4.04639e-12
1.5566e-12
5.75427e-13
2.04271e-13
6.84219e-14
3.22879e-14
0
0
0
0
0
0
0
0
0
0
0
0
0
0
0
0
0
0
0
0
0
0
0
0
0
0
0
0
0
0
0
2.5011e-20
1.1227e-19
4.8524e-19
2.01919e-18
8.08907e-18
3.11959e-17
1.1581e-16
4.13831e-16
1.42332e-15
4.71157e-15
1.50103e-14
4.60206e-14
1.3578e-13
3.85497e-13
1.05315e-12
2.76844e-12
7.00299e-12
1.70576e-11
4.01404e-11
9.23483e-11
2.07993e-10
4.5284e-10
9.48285e-10
1.90991e-09
3.69956e-09
6.89183e-09
1.23467e-08
2.12707e-08
3.52384e-08
5.61356e-08
8.59877e-08
1.26648e-07
1.79354e-07
2.4421e-07
3.19702e-07
4.02389e-07
4.86917e-07
5.66451e-07
6.33519e-07
6.81142e-07
7.04024e-07
6.99521e-07
6.68143e-07
6.13459e-07
5.41429e-07
4.59336e-07
3.7458e-07
2.93615e-07
2.21219e-07
1.60204e-07
1.11512e-07
7.46041e-08
4.79723e-08
2.96482e-08
1.76109e-08
1.00539e-08
5.51633e-09
2.90887e-09
1.47418e-09
7.18002e-10
3.3608e-10
1.51181e-10
6.53561e-11
2.71521e-11
1.08404e-11
4.15914e-12
1.53346e-12
5.43023e-13
1.81842e-13
8.61621e-14
0
0
0
0
0
0
0
0
0
0
0
0
0
0
0
0
0
0
0
0
0
0
0
0
0
0
0
0
0
0
1.4155e-20
6.63595e-20
2.99495e-19
1.3012e-18
5.44174e-18
2.19054e-17
8.48704e-17
3.16471e-16
1.1357e-15
3.92211e-15
1.30343e-14
4.16819e-14
1.28257e-13
3.79724e-13
1.08167e-12
2.96446e-12
7.81645e-12
1.98291e-11
4.84208e-11
1.14135e-10
2.62655e-10
5.91113e-10
1.28556e-09
2.68892e-09
5.40884e-09
1.04631e-08
1.94638e-08
3.48174e-08
5.98896e-08
9.90559e-08
1.57533e-07
2.40886e-07
3.54152e-07
5.00608e-07
6.80335e-07
8.88908e-07
1.11658e-06
1.34838e-06
1.56536e-06
1.747e-06
1.87428e-06
1.933e-06
1.91637e-06
1.82629e-06
1.673e-06
1.47316e-06
1.24688e-06
1.01442e-06
7.93265e-07
5.96241e-07
4.30747e-07
2.99099e-07
1.99615e-07
1.28042e-07
7.89377e-08
4.67721e-08
2.66351e-08
1.45775e-08
7.66769e-09
3.87612e-09
1.88311e-09
8.79216e-10
3.94505e-10
1.70115e-10
7.04954e-11
2.8074e-11
1.07441e-11
3.95138e-12
1.39593e-12
4.67132e-13
2.21934e-13
0
0
0
0
0
0
0
0
0
0
0
0
0
0
0
0
0
0
0
0
0
0
0
0
0
0
0
0
0
0
3.58723e-20
1.6913e-19
7.67504e-19
3.35207e-18
1.40896e-17
5.6992e-17
2.2184e-16
8.30915e-16
2.99465e-15
1.03846e-14
3.46473e-14
1.11217e-13
3.4346e-13
1.02041e-12
2.91638e-12
8.01824e-12
2.12063e-11
5.39521e-11
1.32086e-10
3.119e-10
7.18077e-10
1.61506e-09
3.5092e-09
7.33241e-09
1.4733e-08
2.84661e-08
5.28866e-08
9.44778e-08
1.62282e-07
2.68012e-07
4.2557e-07
6.49699e-07
9.53602e-07
1.34563e-06
1.8255e-06
2.38079e-06
2.98498e-06
3.59775e-06
4.16855e-06
4.64294e-06
4.97107e-06
5.11622e-06
5.06154e-06
4.81332e-06
4.39977e-06
3.86573e-06
3.2647e-06
2.65008e-06
2.06764e-06
1.55055e-06
1.1176e-06
7.74228e-07
5.15503e-07
3.29889e-07
2.02896e-07
1.19935e-07
6.81363e-08
3.72022e-08
1.95214e-08
9.84468e-09
4.77131e-09
2.22236e-09
9.94789e-10
4.27939e-10
1.76915e-10
7.0287e-11
2.68356e-11
9.84624e-12
3.47063e-12
1.15953e-12
5.50683e-13
0
0
0
0
0
0
0
0
0
0
0
0
0
0
0
0
0
0
0
0
0
0
0
0
0
0
0
0
0
1.77218e-20
8.73253e-20
4.14087e-19
1.88948e-18
8.29606e-18
3.50479e-17
1.42461e-16
5.57125e-16
2.09613e-15
7.58714e-15
2.64189e-14
8.84939e-14
2.85142e-13
8.83784e-13
2.63484e-12
7.55569e-12
2.08398e-11
5.52846e-11
1.4106e-10
3.46252e-10
8.19162e-10
1.88702e-09
4.24226e-09
9.21034e-09
1.9228e-08
3.85976e-08
7.44974e-08
1.38251e-07
2.46677e-07
4.23167e-07
6.97927e-07
1.10666e-06
1.68699e-06
2.47229e-06
3.48309e-06
4.71741e-06
6.14194e-06
7.68715e-06
9.24859e-06
1.06962e-05
1.18911e-05
1.2707e-05
1.30525e-05
1.28873e-05
1.22305e-05
1.11568e-05
9.78216e-06
8.24386e-06
6.67761e-06
5.19878e-06
3.89016e-06
2.79779e-06
1.93393e-06
1.28481e-06
8.20361e-07
5.03429e-07
2.96916e-07
1.68302e-07
9.16852e-08
4.80023e-08
2.41533e-08
1.16798e-08
5.42803e-09
2.42432e-09
1.04059e-09
4.29246e-10
1.70165e-10
6.48291e-11
2.37357e-11
8.34925e-12
2.77995e-12
1.31188e-12
0
0
0
0
0
0
0
0
0
0
0
0
0
0
0
0
0
0
0
0
0
0
0
0
0
0
0
0
0
4.11917e-20
2.042e-19
9.73908e-19
4.46868e-18
1.97253e-17
8.37597e-17
3.42136e-16
1.34431e-15
5.08074e-15
1.84699e-14
6.45805e-14
2.17183e-13
7.0247e-13
2.18522e-12
6.53759e-12
1.88099e-11
5.20468e-11
1.38494e-10
3.54398e-10
8.72242e-10
2.06765e-09
4.76649e-09
1.07123e-08
2.32427e-08
4.84871e-08
9.72512e-08
1.87535e-07
3.47678e-07
6.19686e-07
1.06184e-06
1.74915e-06
2.76995e-06
4.21682e-06
6.17103e-06
8.6813e-06
1.17398e-05
1.52607e-05
1.90689e-05
2.29037e-05
2.6443e-05
2.9345e-05
3.1302e-05
3.20937e-05
3.1628e-05
2.99588e-05
2.72755e-05
2.38679e-05
2.00744e-05
1.62277e-05
1.26082e-05
9.4152e-06
6.75741e-06
4.66126e-06
3.09027e-06
1.96905e-06
1.20582e-06
7.09691e-07
4.01437e-07
2.18236e-07
1.14022e-07
5.72547e-08
2.76303e-08
1.28149e-08
5.71211e-09
2.44698e-09
1.00743e-09
3.98614e-10
1.5158e-10
5.53965e-11
1.94519e-11
6.43464e-12
2.98493e-12
0
0
0
0
0
0
0
0
0
0
0
0
0
0
0
0
0
0
0
0
0
0
0
0
0
0
0
0
1.77363e-20
9.19654e-20
4.5868e-19
2.20042e-18
1.01531e-17
4.50582e-17
1.92319e-16
7.89461e-16
3.11665e-15
1.18327e-14
4.32027e-14
1.5169e-13
5.12169e-13
1.66292e-12
5.1919e-12
1.55872e-11
4.49975e-11
1.24906e-10
3.33385e-10
8.55602e-10
2.1115e-09
5.01571e-09
1.15725e-08
2.60042e-08
5.63936e-08
1.17575e-07
2.3566e-07
4.54085e-07
8.41125e-07
1.49778e-06
2.56386e-06
4.21882e-06
6.67317e-06
1.01464e-05
1.48294e-05
2.08334e-05
2.81333e-05
3.65172e-05
4.55603e-05
5.46366e-05
6.29774e-05
6.97729e-05
7.42993e-05
7.6046e-05
7.48098e-05
7.0734e-05
6.4281e-05
5.61462e-05
4.71344e-05
3.80307e-05
2.94922e-05
2.19813e-05
1.57462e-05
1.0841e-05
7.17351e-06
4.56211e-06
2.78849e-06
1.63811e-06
9.24874e-07
5.0187e-07
2.61739e-07
1.31194e-07
6.32019e-08
2.92627e-08
1.30218e-08
5.56927e-09
2.28928e-09
9.04432e-10
3.43423e-10
1.25332e-10
4.3951e-11
1.43759e-11
6.43933e-12
0
0
0
0
0
0
0
0
0
0
0
0
0
0
0
0
0
0
0
0
0
0
0
0
0
0
0
0
3.77938e-20
1.97223e-19
9.89709e-19
4.77594e-18
2.21617e-17
9.88846e-17
4.24257e-16
1.75024e-15
6.9426e-15
2.64789e-14
9.71008e-14
3.42361e-13
1.16059e-12
3.78269e-12
1.18535e-11
3.57115e-11
1.03439e-10
2.8805e-10
7.71181e-10
1.98494e-09
4.91192e-09
1.16932e-08
2.70061e-08
6.06836e-08
1.31556e-07
2.74161e-07