# vtk DataFile Version 2.0
Structured output generated by Nextsim
ASCII
DATASET STRUCTURED_POINTS
DIMENSIONS 101 101 1
ORIGIN 0 0 0
SPACING 0.01 0.01 0.01
POINT_DATA 10201
SCALARS interpolate DOUBLE 1
LOOKUP_TABLE default
0
0
0
0
0
0
0
0
0
0
0
0
0
0
0
0
0
0
0
0
0
0
0
0
0
0
0
0
0
0
0
0
0
0
0
0
0
0
0
0
0
0
0
0
0
0
0
0
0
0
0
0
0
0
0
0
0
0
0
0
0
0
0
0
0
0
0
0
0
0
0
0
0
0
0
0
0
0
0
0
0
0
0
0
0
0
0
0
0
0
0
0
0
0
0
0
0
0
0
0
0
0
0
0
0
0
0
0
0
0
0
0
0
0
0
0
0
0
0
0
0
0
0
0
0
0
0
0
0
0
0
0
0
0
0
0
0
0
0
0
0
0
0
0
0
0
0
0
0
0
0
0
0
0
0
0
0
0
0
0
0
0
0
0
0
0
0
0
0
0
0
0
0
0
0
0
0
0
0
0
0
0
0
0
0
0
0
0
0
0
0
0
0
0
0
0
0
0
0
0
0
0
0
0
0
0
0
0
0
0
0
0
0
0
0
0
0
0
0
0
0
0
0
0
0
0
0
0
0
0
0
0
0
0
0
0
0
0
0
0
0
0
0
0
0
0
0
0
0
0
0
0
0
0
0
0
0
0
0
0
0
0
0
0
0
0
0
0
0
0
0
0
0
0
0
0
0
0
0
0
0
0
0
0
0
0
0
0
0
0
0
0
0
0
0
0
0
0
0
0
0
0
0
0
0
0
0
0
0
0
0
0
0
0
0
0
0
0
0
0
0
0
0
0
0
0
0
0
0
0
0
0
0
0
0
0
0
0
0
0
0
0
0
0
0
0
0
0
0
0
0
0
0
0
0
0
0
0
0
0
0
0
0
0
0
0
0
0
0
0
0
0
0
0
0
0
0
0
0
0
0
0
0
0
0
0
0
0
0
0
0
0
0
0
0
0
0
0
0
0
0
0
0
0
0
0
0
0
0
0
0
0
0
0
0
0
0
0
0
0
0
0
0
0
0
0
0
0
0
0
0
0
0
0
0
0
0
0
0
0
0
0
0
0
0
0
0
0
0
0
0
0
0
0
0
0
0
0
0
0
0
0
0
0
0
0
0
0
0
0
0
0
0
0
0
0
0
0
0
0
0
0
0
0
0
0
0
0
0
0
0
0
0
0
0
0
0
0
0
0
0
0
0
0
0
0
0
0
0
0
0
0
0
0
0
0
0
0
0
0
0
0
0
0
0
0
0
0
0
0
0
0
0
0
0
0
0
0
0
0
0
0
0
0
0
0
0
0
0
0
0
0
0
0
0
0
0
0
0
0
0
0
0
0
0
0
0
0
0
0
0
0
0
0
0
0
0
0
0
0
0
0
0
0
0
0
0
0
0
0
0
0
0
0
0
0
0
0
0
0
0
0
0
0
0
0
0
0
0
0
0
0
0
0
0
0
0
0
0
0
0
0
0
0
0
0
0
0
0
0
0
0
0
0
0
0
0
0
0
0
0
0
0
0
0
0
0
0
0
0
0
0
0
0
0
0
0
0
0
0
0
0
0
0
0
0
0
0
0
0
0
0
0
0
0
0
0
0
0
0
0
0
0
0
0
0
0
0
0
0
0
0
0
0
0
0
0
0
0
0
0
0
0
0
0
0
0
0
0
0
0
0
0
0
0
0
0
0
0
0
0
0
0
0
0
0
0
0
0
0
0
0
0
0
0
0
0
0
0
0
0
0
0
0
0
0
0
0
0
0
0
0
0
0
0
0
0
0
0
0
0
0
0
0
0
0
0
0
0
0
0
0
1.30678e-20
2.70398e-20
4.20331e-20
2.51719e-20
0
0
0
0
0
0
0
0
0
0
0
0
0
0
0
0
0
0
0
0
0
0
0
0
0
0
0
0
0
0
0
0
0
0
0
0
0
0
0
0
0
0
0
0
0
0
0
0
0
0
0
0
0
0
0
0
0
0
0
0
0
0
0
0
0
0
0
0
0
0
0
0
0
0
0
0
0
0
0
0
0
0
0
0
0
0
0
0
0
0
0
0
0
1.23302e-20
6.84429e-20
1.97016e-19
4.58049e-19
9.96223e-19
1.94921e-18
2.89878e-18
1.7041e-18
1.74232e-19
1.02013e-19
1.02414e-20
0
0
0
0
0
0
0
0
0
0
0
0
0
0
0
0
0
0
0
0
0
0
0
0
0
0
0
0
0
0
0
0
0
0
0
0
0
0
0
0
0
0
0
0
0
0
0
0
0
0
0
0
0
0
0
0
0
0
0
0
0
0
0
0
0
0
0
0
0
0
0
0
0
0
0
0
0
0
0
0
0
0
0
0
0
0
0
0
1.08828e-20
1.28387e-19
1.08329e-18
5.76739e-18
1.56531e-17
3.39645e-17
6.93112e-17
1.28189e-16
1.82338e-16
1.05199e-16
1.07707e-17
6.20093e-18
6.25928e-19
3.54244e-19
1.0734e-20
0
0
0
0
0
0
0
0
0
0
0
0
0
0
0
0
0
0
0
0
0
0
0
0
0
0
0
0
0
0
0
0
0
0
0
0
0
0
0
0
0
0
0
0
0
0
0
0
0
0
0
0
0
0
0
0
0
0
0
0
0
0
0
0
0
0
0
0
0
0
0
0
0
0
0
0
0
0
0
0
0
0
0
0
0
6.53152e-20
9.5209e-19
1.06955e-17
8.63223e-17
4.40919e-16
1.12921e-15
2.28594e-15
4.37553e-15
7.64654e-15
1.04005e-14
5.88805e-15
6.0725e-16
3.4374e-16
3.5056e-17
1.95333e-17
6.1638e-19
0
0
0
0
0
0
0
0
0
0
0
0
0
0
0
0
0
0
0
0
0
0
0
0
0
0
0
0
0
0
0
0
0
0
0
0
0
0
0
0
0
0
0
0
0
0
0
0
0
0
0
0
0
0
0
0
0
0
0
0
0
0
0
0
0
0
0
0
0
0
0
0
0
0
0
0
0
0
0
0
0
0
0
1.55565e-20
3.21096e-19
5.47892e-18
7.54249e-17
8.04215e-16
6.19566e-15
3.03647e-14
7.34417e-14
1.38661e-13
2.48865e-13
4.10794e-13
5.34157e-13
2.96713e-13
3.10443e-14
1.72777e-14
1.79057e-15
9.82251e-16
3.24257e-17
1.99738e-20
0
0
0
0
0
0
0
0
0
0
0
0
0
0
0
0
0
0
0
0
0
0
0
0
0
0
0
0
0
0
0
0
0
0
0
0
0
0
0
0
0
0
0
0
0
0
0
0
0
0
0
0
0
0
0
0
0
0
0
0
0
0
0
0
0
0
0
0
0
0
0
0
0
0
0
0
0
0
0
0
0
5.89717e-20
1.35316e-18
2.60552e-17
4.15669e-16
5.37508e-15
5.41636e-14
3.97127e-13
1.86714e-12
4.26855e-12
7.51408e-12
1.26413e-11
1.97025e-11
2.44856e-11
1.33463e-11
1.42893e-12
7.81987e-13
8.2927e-14
4.47876e-14
1.55526e-15
1.09848e-18
0
0
0
0
0
0
0
0
0
0
0
0
0
0
0
0
0
0
0
0
0
0
0
0
0
0
0
0
0
0
0
0
0
0
0
0
0
0
0
0
0
0
0
0
0
0
0
0
0
0
0
0
0
0
0
0
0
0
0
0
0
0
0
0
0
0
0
0
0
0
0
0
0
0
0
0
0
0
0
0
2.00126e-19
5.04651e-18
1.07381e-16
1.91458e-15
2.83368e-14
3.41806e-13
3.23677e-12
2.2491e-11
1.01384e-10
2.19269e-10
3.59773e-10
5.6718e-10
8.34393e-10
9.90838e-10
5.301e-10
5.87028e-11
3.15967e-11
3.45786e-12
1.83887e-12
6.76198e-14
5.5345e-17
3.62122e-20
0
0
0
0
0
0
0
0
0
0
0
0
0
0
0
0
0
0
0
0
0
0
0
0
0
0
0
0
0
0
0
0
0
0
0
0
0
0
0
0
0
0
0
0
0
0
0
0
0
0
0
0
0
0
0
0
0
0
0
0
0
0
0
0
0
0
0
0
0
0
0
0
0
0
0
0
0
1.8862e-20
6.11649e-19
1.69021e-17
3.94748e-16
7.73745e-15
1.26639e-13
1.72201e-12
1.92019e-11
1.69613e-10
1.11023e-09
4.79253e-09
9.81404e-09
1.50051e-08
2.21612e-08
3.07626e-08
3.48993e-08
1.83378e-08
2.12893e-09
1.12758e-09
1.28688e-10
6.74022e-11
2.64627e-12
2.5424e-15
1.91062e-18
0
0
0
0
0
0
0
0
0
0
0
0
0
0
0
0
0
0
0
0
0
0
0
0
0
0
0
0
0
0
0
0
0
0
0
0
0
0
0
0
0
0
0
0
0
0
0
0
0
0
0
0
0
0
0
0
0
0
0
0
0
0
0
0
0
0
0
0
0
0
0
0
0
0
0
0
4.72812e-20
1.67363e-18
5.06997e-17
1.3015e-15
2.80384e-14
5.02933e-13
7.48267e-12
9.23549e-11
9.40915e-10
7.67715e-09
4.69281e-08
1.93562e-07
3.75587e-07
5.3499e-07
7.40067e-07
9.69096e-07
1.05022e-06
5.42619e-07
6.72072e-08
3.50573e-08
4.228e-09
2.18205e-09
9.24062e-11
1.05871e-13
9.23524e-17
0
0
0
0
0
0
0
0
0
0
0
0
0
0
0
0
0
0
0
0
0
0
0
0
0
0
0
0
0
0
0
0
0
0
0
0
0
0
0
0
0
0
0
0
0
0
0
0
0
0
0
0
0
0
0
0
0
0
0
0
0
0
0
0
0
0
0
0
0
0
0
0
0
0
0
1.05157e-19
4.04782e-18
1.34259e-16
3.79487e-15
9.03471e-14
1.78995e-12
2.92095e-11
3.90961e-10
4.31562e-09
3.95553e-08
2.94276e-07
1.65828e-06
6.50997e-06
1.19768e-05
1.58915e-05
2.05876e-05
2.54269e-05
2.63243e-05
1.34024e-05
1.81296e-06
9.32729e-07
1.20926e-07
6.15428e-08
2.84795e-09
3.96834e-12
4.07002e-15
0
0
0
0
0
0
0
0
0
0
0
0
0
0
0
0
0
0
0
0
0
0
0
0
0
0
0
0
0
0
0
0
0
0
0
0
0
0
0
0
0
0
0
0
0
0
0
0
0
0
0
0
0
0
0
0
0
0
0
0
0
0
0
0
0
0
0
0
0
0
0
0
0
0
2.10671e-19
8.52938e-18
3.08056e-16
9.56284e-15
2.51995e-13
5.55934e-12
1.01114e-10
1.49437e-09
1.78105e-08
1.72732e-07
1.39506e-06
9.29974e-06
4.73639e-05
0.000175708
0.000306563
0.000378918
0.00045975
0.000535559
0.000529912
0.00026691
4.07489e-05
2.07285e-05
2.95592e-06
1.48537e-06
7.63949e-08
1.32729e-10
1.62594e-13
0
0
0
0
0
0
0
0
0
0
0
0
0
0
0
0
0
0
0
0
0
0
0
0
0
0
0
0
0
0
0
0
0
0
0
0
0
0
0
0
0
0
0
0
0
0
0
0
0
0
0
0
0
0
0
0
0
0
0
0
0
0
0
0
0
0
0
0
0
0
0
0
0
3.81001e-19
1.5807e-17
6.01133e-16
2.03281e-14
5.89762e-13
1.44778e-11
2.95878e-10
4.93752e-09
6.59049e-08
6.93042e-07
5.78349e-06
3.99934e-05
0.000233214
0.00103977
0.00359414
0.00594268
0.00684514
0.00778167
0.00855347
0.00809835
0.00406756
0.000736028
0.000371844
6.02221e-05
2.99453e-05
1.75117e-06
3.91844e-09
5.84666e-12
0
0
0
0
0
0
0
0
0
0
0
0
0
0
0
0
0
0
0
0
0
0
0
0
0
0
0
0
0
0
0
0
0
0
0
0
0
0
0
0
0
0
0
0
0
0
0
0
0
0
0
0
0
0
0
0
0
0
0
0
0
0
0
0
0
0
0
0
0
0
0
1.29259e-20
5.99418e-19
2.55655e-17
9.98891e-16
3.55842e-14
1.12351e-12
3.04035e-11
6.94536e-10
1.31447e-08
2.01271e-07
2.42345e-06
2.23195e-05
0.000156495
0.00088865
0.00437804
0.0161668
0.0504553
0.0787933
0.0846975
0.0903419
0.0938461
0.0853079
0.0435097
0.0101068
0.00511495
0.000986569
0.000487311
3.34573e-05
1.00693e-07
1.87597e-10
0
0
0
0
0
0
0
0
0
0
0
0
0
0
0
0
0
0
0
0
0
0
0
0
0
0
0
0
0
0
0
0
0
0
0
0
0
0
0
0
0
0
0
0
0
0
0
0
0
0
0
0
0
0
0
0
0
0
0
0
0
0
0
0
0
0
0
0
0
0
1.62951e-20
7.79333e-19
3.42697e-17
1.37998e-15
5.06417e-14
1.68376e-12
4.94493e-11
1.24461e-09
2.64064e-08
4.62326e-07
6.49316e-06
7.04763e-05
0.000565139
0.00324095
0.0141572
0.0557258
0.15319
0.394174
0.573138
0.578108
0.58174
0.574563
0.507408
0.277424
0.0959763
0.049607
0.0123016
0.00608118
0.000514165
2.21145e-06
5.31275e-09
0
0
0
0
0
0
0
0
0
0
0
0
0
0
0
0
0
0
0
0
0
0
0
0
0
0
0
0
0
0
0
0
0
0
0
0
0
0
0
0
0
0
0
0
0
0
0
0
0
0
0
0
0
0
0
0
0
0
0
0
0
0
0
0
0
0
0
0
0
1.564e-20
7.73362e-19
3.51551e-17
1.46316e-15
5.54853e-14
1.90582e-12
5.88667e-11
1.60024e-09
3.73074e-08
7.32563e-07
1.18288e-05
0.000151958
0.00148213
0.0102724
0.0466603
0.13997
0.393114
0.638018
0.847144
0.999993
0.999892
0.998733
0.988667
0.928577
0.727439
0.52017
0.290328
0.106386
0.053515
0.00602087
4.04901e-05
1.30957e-07
0
0
0
0
0
0
0
0
0
0
0
0
0
0
0
0
0
0
0
0
0
0
0
0
0
0
0
0
0
0
0
0
0
0
0
0
0
0
0
0
0
0
0
0
0
0
0
0
0
0
0
0
0
0
0
0
0
0
0
0
0
0
0
0
0
0
0
0
0
5.06465e-19
2.38655e-17
1.02969e-15
4.048e-14
1.44152e-12
4.61656e-11
1.31787e-09
3.29677e-08
7.07723e-07
1.27768e-05
0.000188753
0.0021951
0.018968
0.111134
0.379305
0.626662
0.841542
1
1
1
1
0.999994
0.999907
0.998878
0.989631
0.932598
0.735835
0.529912
0.284486
0.0490707
0.00059654
2.7586e-06
3.48732e-20
2.83638e-20
2.21794e-20
1.66732e-20
1.20493e-20
0
0
0
0
0
0
0
0
0
0
0
0
0
0
0
0
0
0
0
0
0
0
0
0
0
0
0
0
0
0
0
0
0
0
0
0
0
0
0
0
0
0
0
0
0
0
0
0
0
0
0
0
0
0
0
0
0
0
0
0
0
0
0
1.54439e-19
7.57933e-18
3.40746e-16
1.39668e-14
5.18966e-13
1.73593e-11
5.18259e-10
1.36624e-08
3.1365e-07
6.15723e-06
0.000100871
0.00133271
0.013495
0.0964719
0.419949
0.835735
1
1
1
1
1
1
1
1
0.999995
0.999915
0.998911
0.989254
0.923975
0.660677
0.233619
0.00670204
4.8436e-05
2.13774e-19
1.73439e-19
1.35316e-19
1.01492e-19
7.31795e-20
5.07243e-20
3.3799e-20
2.16495e-20
1.33303e-20
0
0
0
0
0
0
0
0
0
0
0
0
0
0
0
0
0
0
0
0
0
0
0
0
0
0
0
0
0
0
0
0
0
0
0
0
0
0
0
0
0
0
0
0
0
0
0
0
0
0
0
0
0
0
0
0
0
0
0
3.05533e-19
1.52217e-17
6.9463e-16
2.88952e-14
1.08926e-12
3.6945e-11
1.11752e-09
2.98121e-08
6.88622e-07
1.34508e-05
0.000216306
0.00275799
0.0263507
0.172055
0.648258
1
1
1
1
1
1
1
1
1
1
0.999991
0.999857
0.998102
0.980814
0.864372
0.43361
0.0524991
0.00068408
1.2628e-18
1.02204e-18
7.95651e-19
5.95467e-19
4.28417e-19
2.96309e-19
1.97008e-19
1.25915e-19
7.73609e-20
4.56885e-20
2.59376e-20
1.41541e-20
0
0
0
0
0
0
0
0
0
0
0
0
0
0
0
0
0
0
0
0
0
0
0
0
0
0
0
0
0
0
0
0
0
0
0
0
0
0
0
0
0
0
0
0
0
0
0
0
0
0
0
0
0
0
0
5.17216e-20
2.7443e-18
1.33383e-16
5.91026e-15
2.37386e-13
8.5824e-12
2.76905e-10
7.88765e-09
1.95659e-07
4.15052e-06
7.34589e-05
0.00104787
0.0114403
0.087883
0.407135
0.829714
1
1
1
1
1
1
1
1
1
1
0.999996
0.999937
0.999137
0.990863
0.930903
0.673415
0.241539
0.00736103
7.16945e-18
5.8035e-18
4.50851e-18
3.36711e-18
2.41743e-18
1.66847e-18
1.10699e-18
7.06031e-19
4.32865e-19
2.55108e-19
1.44521e-19
7.86993e-20
4.11941e-20
2.07261e-20
1.00234e-20
0
0
0
0
0
0
0
0
0
0
0
0
0
0
0
0
0
0
0
0
0
0
0
0
0
0
0
0
0
0
0
0
0
0
0
0
0
0
0
0
0
0
0
0
0
0
0
0
0
0
0
0
9.63273e-20
5.19299e-18
2.56465e-16
1.15466e-14
4.71139e-13
1.72984e-11
5.66481e-10
1.63628e-08
4.10982e-07
8.76637e-06
0.00015389
0.00214015
0.0222676
0.157745
0.637472
1
1
1
1
1
1
1
1
1
1
1
1
0.999994
0.999895
0.998499
0.983626
0.875461
0.445517
0.0550833
3.92411e-17
3.17522e-17
2.46174e-17
1.8348e-17
1.31464e-17
9.05511e-18
5.9957e-18
3.81628e-18
2.33501e-18
1.37334e-18
7.76438e-19
4.21954e-19
2.20418e-19
1.10675e-19
5.34154e-20
2.47794e-20
1.10489e-20
0
0
0
0
0
0
0
0
0
0
0
0
0
0
0
0
0
0
0
0
0
0
0
0
0
0
0
0
0
0
0
0
0
0
0
0
0
0
0
0
0
0
0
0
0
0
0
0
0
1.57404e-20
9.08379e-19
4.80466e-17
2.31667e-15
1.0124e-13
3.98173e-12
1.39723e-10
4.32741e-09
1.16667e-07
2.68878e-06
5.17003e-05
0.000801333
0.00950324
0.0791366
0.393859
0.823473
1
1
1
1
1
1
1
1
1
1
1
1
0.999998
0.999955
0.999327
0.992308
0.937368
0.683975
0.239545
2.07236e-16
1.67371e-16
1.29511e-16
9.63415e-17
6.88953e-17
4.73621e-17
3.12991e-17
1.98832e-17
1.21419e-17
7.12737e-18
4.02168e-18
2.18131e-18
1.13724e-18
5.69908e-19
2.74519e-19
1.27101e-19
5.65623e-20
2.41938e-20
0
0
0
0
0
0
0
0
0
0
0
0
0
0
0
0
0
0
0
0
0
0
0
0
0
0
0
0
0
0
0
0
0
0
0
0
0
0
0
0
0
0
0
0
0
0
0
0
2.33447e-20
1.36104e-18
7.28597e-17
3.55639e-15
1.57347e-13
6.26531e-12
2.2256e-10
6.97564e-09
1.90199e-07
4.42817e-06
8.58719e-05
0.00133872
0.0158788
0.130501
0.615879
1
1
1
1
1
1
1
1
1
1
1
1
1
1
0.999996
0.999916
0.998681
0.984283
0.870195
0.384674
1.05775e-15
8.49916e-16
6.56444e-16
4.8741e-16
3.47905e-16
2.38721e-16
1.57463e-16
9.98428e-17
6.08559e-17
3.56557e-17
2.00813e-17
1.08713e-17
5.65716e-18
2.82966e-18
1.36045e-18
6.28695e-19
2.79255e-19
1.19223e-19
4.89229e-20
1.92954e-20
0
0
0
0
0
0
0
0
0
0
0
0
0
0
0
0
0
0
0
0
0
0
0
0
0
0
0
0
0
0
0
0
0
0
0
0
0
0
0
0
0
0
0
0
0
0
1.29895e-20
7.73149e-19
4.30731e-17
2.19108e-15
1.01081e-13
4.199e-12
1.55701e-10
5.09731e-09
1.45277e-07
3.53853e-06
7.18192e-05
0.0011715
0.0145296
0.124669
0.611242
1
1
1
1
1
1
1
1
1
1
1
1
1
1
0.999997
0.99993
0.998846
0.985614
0.87597
0.389268
5.18436e-15
4.15743e-15
3.20533e-15
2.37571e-15
1.69271e-15
1.1594e-15
7.63375e-16
4.83164e-16
2.93965e-16
1.71924e-16
9.66524e-17
5.22297e-17
2.71297e-17
1.35454e-17
6.50059e-18
2.99862e-18
1.32951e-18
5.66582e-19
2.32074e-19
9.13645e-20
3.4571e-20
1.25724e-20
0
0
0
0
0
0
0
0
0
0
0
0
0
0
0
0
0
0
0
0
0
0
0
0
0
0
0
0
0
0
0
0
0
0
0
0
0
0
0
0
0
0
0
0
0
4.20207e-19
2.43355e-17
1.29799e-15
6.28172e-14
2.73774e-12
1.06512e-10
3.65863e-09
1.09406e-07
2.7958e-06
5.95247e-05
0.00101821
0.0132344
0.118821
0.606539
0.999991
1
1
1
1
1
1
1
1
1
1
1
1
1
0.999997
0.999941
0.998982
0.986747
0.880993
0.393285
2.44662e-14
1.95882e-14
1.50765e-14
1.11552e-14
7.93448e-15
5.42525e-15
3.56595e-15
2.25309e-15
1.36844e-15
7.98938e-16
4.48366e-16
2.41869e-16
1.25415e-16
6.25082e-17
2.99459e-17
1.37894e-17
6.10319e-18
2.59636e-18
1.06162e-18
4.17213e-19
1.57591e-19
5.72108e-20
1.995e-20
0
0
0
0
0
0
0
0
0
0
0
0
0
0
0
0
0
0
0
0
0
0
0
0
0
0
0
0
0
0
0
0
0
0
0
0
0
0
0
0
0
0
0
1.00653e-20
2.37535e-19
1.33937e-17
7.48388e-16
3.80834e-14
1.74561e-12
7.1428e-11
2.58055e-09
8.11607e-08
2.18117e-06
4.88298e-05
0.000877991
0.0119877
0.11288
0.601292
0.999568
1
1
1
1
1
1
1
1
1
1
1
1
1
0.999997
0.99994
0.998956
0.986335
0.878188
0.390866
1.11206e-13
8.88898e-14
6.83041e-14
5.04556e-14
3.5829e-14
2.44578e-14
1.60492e-14
1.01236e-14
6.13843e-15
3.57781e-15
2.00451e-15
1.07951e-15
5.58814e-16
2.78051e-16
1.32982e-16
6.11321e-17
2.70114e-17
1.14716e-17
4.68264e-18
1.83716e-18
6.92766e-19
2.51073e-19
8.74092e-20
2.87884e-20
1.34682e-20
0
0
0
0
0
0
0
0
0
0
0
0
0
0
0
0
0
0
0
0
0
0
0
0
0
0
0
0
0
0
0
0
0
0
0
0
0
0
0
0
0
3.22859e-20
2.02328e-19
7.3177e-18
4.17252e-16
2.23374e-14
1.07862e-12
4.64925e-11
1.76897e-09
5.85717e-08
1.65621e-06
3.89884e-05
0.0007368
0.0105656
0.104357
0.581043
0.986536
0.999984
1
1
1
1
1
1
1
1
1
1
1
1
0.999994
0.999867
0.997867
0.975512
0.821912
0.344393
4.86768e-13
3.88477e-13
2.98043e-13
2.19815e-13
1.55846e-13
1.06216e-13
6.95877e-14
4.38249e-14
2.65307e-14
1.54387e-14
8.63581e-15
4.64324e-15
2.39971e-15
1.1921e-15
5.69217e-16
2.61245e-16
1.15245e-16
4.8864e-17
1.99136e-17
7.80007e-18
2.9365e-18
1.06252e-18
3.69327e-19
1.21555e-19
5.69409e-20
0
0
0
0
0
0
0
0
0
0
0
0
0
0
0
0
0
0
0
0
0
0
0
0
0
0
0
0
0
0
0
0
0
0
0
0
0
0
0
1.27198e-20
4.19298e-20
1.33426e-19
4.41905e-19
3.63436e-18
1.52818e-16
8.29121e-15
4.1309e-13
1.83828e-11
7.22114e-10
2.46948e-08
7.22016e-07
1.76024e-05
0.00034535
0.00516887
0.0539788
0.330843
0.781089
0.999384
0.999999
1
1
1
1
1
1
1
1
1
1
0.999999
0.999972
0.999488
0.992545
0.925877
0.58388
0.151033
2.05169e-12
1.63495e-12
1.25247e-12
9.22338e-13
6.52936e-13
4.44327e-13
2.90658e-13
1.8277e-13
1.10475e-13
6.41884e-14
3.5849e-14
1.92452e-14
9.93082e-15
4.92564e-15
2.34828e-15
1.07607e-15
4.73952e-16
2.00642e-16
8.16399e-17
3.19278e-17
1.2001e-17
4.33552e-18
1.50472e-18
4.94933e-19
2.32153e-19
0
0
0
0
0
0
0
0
0
0
0
0
0
0
0
0
0
0
0
0
0
0
0
0
0
0
0
0
0
0
0
0
0
0
0
0
0
0
1.53604e-20
5.27006e-20
1.73938e-19
5.52253e-19
1.68762e-18
5.02254e-18
1.79701e-17
2.50892e-16
1.0618e-14
4.81754e-13
2.04939e-11
8.095e-10
2.93208e-08
9.30065e-07
2.45745e-05
0.000520968
0.00837003
0.0923345
0.568187
0.9837
0.999974
0.999998
0.999999
1
1
1
1
1
1
1
0.999998
0.999989
0.999874
0.99835
0.979601
0.836283
0.355149
1.00592e-11
8.32661e-12
6.62586e-12
5.0685e-12
3.72714e-12
2.63466e-12
1.79029e-12
1.16941e-12
7.34262e-13
4.43169e-13
2.5711e-13
1.43382e-13
7.68586e-14
3.96011e-14
1.96125e-14
9.33618e-15
4.27178e-15
1.87865e-15
7.94109e-16
3.22629e-16
1.25984e-16
4.72831e-17
1.70558e-17
5.91086e-18
1.94307e-18
9.12677e-19
0
0
0
0
0
0
0
0
0
0
0
0
0
0
0
0
0
0
0
0
0
0
0
0
0
0
0
0
0
0
0
0
0
0
0
0
0
1.7099e-20
6.10733e-20
2.0984e-19
6.93529e-19
2.20481e-18
6.74219e-18
1.98381e-17
5.66905e-17
1.92834e-16
2.88936e-15
1.40458e-13
6.99102e-12
3.09587e-10
1.19445e-08
3.93787e-07
1.08149e-05
0.00023877
0.00401355
0.0468678
0.317118
0.773195
0.999117
0.999907
0.999947
0.999995
0.999997
1
0.999999
0.999999
0.999999
0.999996
0.999968
0.99986
0.999011
0.993149
0.934581
0.597123
0.156568
3.93596e-11
3.25362e-11
2.58552e-11
1.9751e-11
1.45039e-11
1.02383e-11
6.94739e-12
4.53164e-12
2.84136e-12
1.7125e-12
9.92118e-13
5.52484e-13
2.9573e-13
1.52155e-13
7.5247e-14
3.57683e-14
1.63422e-14
7.1766e-15
3.02916e-15
1.22889e-15
4.79172e-16
1.79577e-16
6.46819e-17
2.23845e-17
7.35453e-18
3.45944e-18
0
0
0
0
0
0
0
0
0
0
0
0
0
0
0
0
0
0
0
0
0
0
0
0
0
0
0
0
0
0
0
0
0
0
0
0
1.75435e-20
6.52389e-20
2.33366e-19
8.02966e-19
2.65749e-18
8.45965e-18
2.59016e-17
7.62756e-17
2.16044e-16
5.89239e-16
1.58809e-15
6.46135e-15
1.44204e-13
6.72393e-12
3.15371e-10
1.33517e-08
4.83125e-07
1.45499e-05
0.000351399
0.00642409
0.0803848
0.554915
0.979353
0.99738
0.998566
0.999832
0.999906
0.999988
0.999985
0.99998
0.999971
0.999913
0.999457
0.998143
0.990688
0.970583
0.844742
0.36623
1.72638e-10
1.48261e-10
1.224e-10
9.71393e-11
7.41079e-11
5.43483e-11
3.83137e-11
2.59636e-11
1.69128e-11
1.05901e-11
6.37404e-12
3.6877e-12
2.05077e-12
1.09622e-12
5.63235e-13
2.78158e-13
1.32038e-13
6.0243e-14
2.64187e-14
1.11354e-14
4.5112e-15
1.75655e-15
6.5737e-16
2.36446e-16
8.17158e-17
2.6835e-17
1.26414e-17
0
0
0
0
0
0
0
0
0
0
0
0
0
0
0
0
0
0
0
0
0
0
0
0
0
0
0
0
0
0
0
0
0
0
0
1.65872e-20
6.42269e-20
2.39213e-19
8.5697e-19
2.95289e-18
9.78636e-18
3.11943e-17
9.5631e-17
2.81958e-16
7.99507e-16
2.18034e-15
5.72645e-15
1.50456e-14
7.52589e-14
2.40122e-12
1.18168e-10
5.22195e-09
1.97269e-07
6.20343e-06
0.00015661
0.00300264
0.039767
0.29998
0.737639
0.949721
0.973238
0.996097
0.997874
0.999702
0.99963
0.999547
0.999412
0.998632
0.992721
0.980119
0.922559
0.835781
0.561896
0.162306
6.2677e-10
5.37609e-10
4.43286e-10
3.51364e-10
2.67721e-10
1.96089e-10
1.38061e-10
9.34385e-11
6.07879e-11
3.80136e-11
2.28501e-11
1.32027e-11
7.33254e-12
3.91437e-12
2.00854e-12
9.90618e-13
4.69608e-13
2.13975e-13
9.37099e-14
3.94456e-14
1.59588e-14
6.20558e-15
2.31923e-15
8.33067e-16
2.8753e-16
9.43819e-17
4.45294e-17
0
0
0
0
0
0
0
0
0
0
0
0
0
0
0
0
0
0
0
0
0
0
0
0
0
0
0
0
0
0
0
0
0
0
1.44502e-20
5.8266e-20
2.25977e-19
8.42963e-19
3.0244e-18
1.04362e-17
3.4635e-17
1.10545e-16
3.39324e-16
1.00167e-15
2.8436e-15
7.76305e-15
2.03804e-14
5.14585e-14
1.25298e-13
3.13394e-13
1.90033e-12
6.93273e-11
3.2371e-09
1.31399e-07
4.43575e-06
0.000119866
0.0024462
0.0340505
0.259455
0.482768
0.723663
0.938191
0.966859
0.994164
0.993266
0.992292
0.990892
0.983728
0.93127
0.852532
0.603328
0.359587
0.166248
2.45756e-09
2.19026e-09
1.87649e-09
1.54544e-09
1.22351e-09
9.31137e-10
6.8118e-10
4.79016e-10
3.23798e-10
2.10392e-10
1.31406e-10
7.88903e-11
4.55253e-11
2.52522e-11
1.34635e-11
6.89962e-12
3.39858e-12
1.60906e-12
7.32221e-13
3.20262e-13
1.34635e-13
5.43998e-14
2.1126e-14
7.88524e-15
2.82869e-15
9.75075e-16
3.19943e-16
1.51187e-16
0
0
0
0
0
0
0
0
0
0
0
0
0
0
0
0
0
0
0
0
0
0
0
0
0
0
0
0
0
0
0
0
0
1.15969e-20
4.87002e-20
1.96701e-19
7.64118e-19
2.85484e-18
1.0258e-17
3.54478e-17
1.17803e-16
3.76491e-16
1.15712e-15
3.4199e-15
9.71984e-15
2.65647e-14
6.98146e-14
1.76432e-13
4.28776e-13
1.0029e-12
2.27129e-12
4.99743e-12
1.11875e-11
5.88147e-11
1.97361e-09
8.53204e-08
3.12527e-06
9.1676e-05
0.00202944
0.0305859
0.250699
0.469137
0.709525
0.921917
0.915985
0.90999
0.902261
0.86713
0.616694
0.370686
0.172341
9.27489e-09
8.93521e-09
8.27487e-09
7.36674e-09
6.3044e-09
5.18635e-09
4.10135e-09
3.11771e-09
2.27815e-09
1.60017e-09
1.0804e-09
7.01177e-10
4.37418e-10
2.62294e-10
1.51181e-10
8.37567e-11
4.46018e-11
2.28292e-11
1.12314e-11
5.31097e-12
2.41385e-12
1.05448e-12
4.42743e-13
1.78669e-13
6.92993e-14
2.58335e-14
9.25571e-15
3.18664e-15
1.04524e-15
4.94723e-16
0
0
0
0
0
0
0
0
0
0
0
0
0
0
0
0
0
0
0
0
0
0
0
0
0
0
0
0
0
0
0
0
0
3.74961e-20
1.57739e-19
6.38191e-19
2.48319e-18
9.29197e-18
3.34377e-17
1.15714e-16
3.85079e-16
1.23231e-15
3.79218e-15
1.12215e-14
3.193e-14
8.73626e-14
2.29841e-13
5.81432e-13
1.41437e-12
3.31068e-12
7.49904e-12
1.64641e-11
3.48384e-11
7.08815e-11
1.38937e-10
2.80174e-10
1.5735e-09
5.4049e-08
2.13658e-06
6.85014e-05
0.00165664
0.0272067
0.240632
0.427466
0.422365
0.417265
0.410809
0.382116
0.178658
2.88854e-08
3.00823e-08
3.01166e-08
2.89841e-08
2.68144e-08
2.38467e-08
2.03862e-08
1.67529e-08
1.32339e-08
1.0049e-08
7.33486e-09
5.14629e-09
3.47076e-09
2.24999e-09
1.40203e-09
8.39758e-10
4.83464e-10
2.67538e-10
1.42303e-10
7.27524e-11
3.57503e-11
1.68853e-11
7.66536e-12
3.3446e-12
1.40263e-12
5.65356e-13
2.19018e-13
8.1548e-14
2.91821e-14
1.00353e-14
3.29062e-15
1.56008e-15
0
0
0
0
0
0
0
0
0
0
0
0
0
0
0
0
0
0
0
0
0
0
0
0
0
0
0
0
0
0
0
0
2.65888e-20
1.16516e-19
4.91027e-19
1.98999e-18
7.75562e-18
2.90664e-17
1.04753e-16
3.63027e-16
1.20976e-15
3.87649e-15
1.19441e-14
3.53867e-14
1.00807e-13
2.76119e-13
7.27204e-13
1.84148e-12
4.48376e-12
1.05036e-11
2.37977e-11
5.22307e-11
1.10465e-10
2.24616e-10
4.39101e-10
8.25271e-10
1.49118e-09
2.59038e-09
4.32606e-09
6.94566e-09
1.07207e-08
1.59081e-08
2.26932e-08
3.11208e-08
4.10283e-08
5.19982e-08
6.33525e-08
7.42004e-08
8.35434e-08
9.04232e-08
9.40818e-08
9.40993e-08
9.04731e-08
8.36185e-08
7.42901e-08
6.34459e-08
5.20854e-08
4.11023e-08
3.11781e-08
2.27335e-08
1.59334e-08
1.07344e-08
6.95128e-09
4.32685e-09
2.58877e-09
1.48877e-09
8.22941e-10
4.37235e-10
2.23287e-10
1.09599e-10
5.17067e-11
2.34465e-11
1.02187e-11
4.28052e-12
1.72337e-12
6.66863e-13
2.48009e-13
8.8648e-14
3.04501e-14
9.98211e-15
4.74061e-15
0
0
0
0
0
0
0
0
0
0
0
0
0
0
0
0
0
0
0
0
0
0
0
0
0
0
0
0
0
0
0
1.73614e-20
7.9261e-20
3.47972e-19
1.46904e-18
5.96368e-18
2.32801e-17
8.73847e-17
3.15399e-16
1.09459e-15
3.65264e-15
1.17197e-14
3.61558e-14
1.07247e-13
3.05868e-13
8.38725e-13
2.21125e-12
5.60512e-12
1.36607e-11
3.20267e-11
7.25828e-11
1.59261e-10
3.36676e-10
6.8425e-10
1.33695e-09
2.51135e-09
4.53512e-09
7.87331e-09
1.31404e-08
2.10835e-08
3.25202e-08
4.82212e-08
6.87379e-08
9.41941e-08
1.24085e-07
1.57136e-07
1.91292e-07
2.2386e-07
2.51832e-07
2.72334e-07
2.83102e-07
2.82899e-07
2.71749e-07
2.50927e-07
2.22724e-07
1.90031e-07
1.55854e-07
1.22869e-07
9.31104e-08
6.78234e-08
4.74881e-08
3.19603e-08
2.06754e-08
1.28562e-08
7.68388e-09
4.41426e-09
2.43748e-09
1.29367e-09
6.59945e-10
3.23583e-10
1.52495e-10
6.90738e-11
3.00716e-11
1.25829e-11
5.06041e-12
1.95598e-12
7.26631e-13
2.59437e-13
8.9018e-14
2.91751e-14
1.38798e-14
0
0
0
0
0
0
0
0
0
0
0
0
0
0
0
0
0
0
0
0
0
0
0
0
0
0
0
0
0
0
1.04364e-20
4.96451e-20
2.27083e-19
9.9878e-19
4.22401e-18
1.71768e-17
6.71611e-17
2.5249e-16
9.12675e-16
3.17197e-15
1.05993e-14
3.40531e-14
1.05187e-13
3.12385e-13
8.91944e-13
2.4485e-12
6.4621e-12
1.63967e-11
3.99996e-11
9.38522e-11
2.12767e-10
4.6675e-10
9.86315e-10
2.00369e-09
3.91317e-09
7.34692e-09
1.32605e-08
2.30084e-08
3.83782e-08
6.15393e-08
9.48609e-08
1.40568e-07
2.00238e-07
2.74201e-07
3.6095e-07
4.56753e-07
5.55608e-07
6.49691e-07
7.30288e-07
7.89093e-07
8.19609e-07
8.18327e-07
7.85392e-07
7.24576e-07
6.42564e-07
5.47748e-07
4.48823e-07
3.53506e-07
2.67635e-07
1.94766e-07
1.36239e-07
9.16019e-08
5.92001e-08
3.67749e-08
2.19578e-08
1.26017e-08
6.95142e-09
3.68567e-09
1.87825e-09
9.19993e-10
4.33116e-10
1.95979e-10
8.52313e-11
3.56261e-11
1.43124e-11
5.52625e-12
2.05077e-12
7.31428e-13
2.50704e-13
8.2151e-14
3.91527e-14
0
0
0
0
0
0
0
0
0
0
0
0
0
0
0
0
0
0
0
0
0
0
0
0
0
0
0
0
0
0
2.86247e-20
1.36438e-19
6.25287e-19
2.75528e-18
1.16731e-17
4.75489e-17
1.86218e-16
7.01168e-16
2.53829e-15
8.83431e-15
2.95606e-14
9.50956e-14
2.9411e-13
8.74496e-13
2.49978e-12
6.86972e-12
1.81496e-11
4.60982e-11
1.12563e-10
2.64324e-10
5.99443e-10
1.31479e-09
2.77739e-09
5.64011e-09
1.10105e-08
2.06629e-08
3.72767e-08
6.46466e-08
1.07774e-07
1.72718e-07
2.66084e-07
3.94052e-07
5.6097e-07
7.67673e-07
1.00986e-06
1.277e-06
1.55227e-06
1.81379e-06
2.03726e-06
2.19961e-06
2.28288e-06
2.27748e-06
2.18403e-06
2.01324e-06
1.78386e-06
1.51933e-06
1.24385e-06
9.7883e-07
7.40399e-07
5.38321e-07
3.76212e-07
2.52718e-07
1.63173e-07
1.01267e-07
6.04077e-08
3.46352e-08
1.90872e-08
1.01103e-08
5.14724e-09
2.5187e-09
1.18458e-09
5.35474e-10
2.32644e-10
9.71455e-11
3.89877e-11
1.50385e-11
5.57503e-12
1.98635e-12
6.80153e-13
2.22838e-13
1.06396e-13
0
0
0
0
0
0
0
0
0
0
0
0
0
0
0
0
0
0
0
0
0
0
0
0
0
0
0
0
0
1.51898e-20
7.54574e-20
3.60387e-19
1.65481e-18
7.30523e-18
3.10044e-17
1.26506e-16
4.96246e-16
1.87143e-15
6.78481e-15
2.36476e-14
7.92357e-14
2.55231e-13
7.9036e-13
2.35283e-12
6.73334e-12
1.85243e-11
4.89917e-11
1.24558e-10
3.04433e-10
7.15468e-10
1.62318e-09
3.55976e-09
7.51752e-09
1.5261e-08
2.97814e-08
5.58673e-08
1.00744e-07
1.74635e-07
2.90998e-07
4.66116e-07
7.17698e-07
1.06226e-06
1.51135e-06
2.06699e-06
2.71738e-06
3.43399e-06
4.17142e-06
4.87084e-06
5.46711e-06
5.89851e-06
6.11726e-06
6.09818e-06
5.84346e-06
5.38226e-06
4.76522e-06
4.05529e-06
3.31726e-06
2.60828e-06
1.97126e-06
1.43201e-06
9.99908e-07
6.71091e-07
4.3292e-07
2.68434e-07
1.59981e-07
9.16425e-08
5.04569e-08
2.67016e-08
1.35814e-08
6.63951e-09
3.1197e-09
1.40887e-09
6.11516e-10
2.55105e-10
1.02283e-10
3.94145e-11
1.45974e-11
5.19585e-12
1.7774e-12
5.82244e-13
2.78493e-13
0
0
0
0
0
0
0
0
0
0
0
0
0
0
0
0
0
0
0
0
0
0
0
0
0
0
0
0
0
3.84043e-20
1.91179e-19
9.14912e-19
4.20915e-18
1.86158e-17
7.91478e-17
3.23491e-16
1.27102e-15
4.80066e-15
1.74305e-14
6.08384e-14
2.04128e-13
6.58385e-13
2.04132e-12
6.08407e-12
1.74312e-11
4.80076e-11
1.27099e-10
3.2346e-10
7.91317e-10
1.86126e-09
4.22435e-09
9.26364e-09
1.95582e-08
3.96933e-08
7.74361e-08
1.45213e-07
2.61761e-07
4.53565e-07
7.55456e-07
1.20952e-06
1.86144e-06
2.7537e-06
3.91575e-06
5.35235e-06
7.0324e-06
8.88158e-06
1.07821e-05
1.25819e-05
1.41128e-05
1.52161e-05
1.57694e-05
1.5709e-05
1.50419e-05
1.38445e-05
1.2248e-05
1.04153e-05
8.51314e-06
6.68837e-06
5.05081e-06
3.66614e-06
2.55778e-06
1.71523e-06
1.10556e-06
6.84919e-07
4.07845e-07
2.33424e-07
1.28407e-07
6.78921e-08
3.45015e-08
1.68516e-08
7.91087e-09
3.56933e-09
1.54784e-09
6.45116e-10
2.58417e-10
9.94878e-11
3.68115e-11
1.30906e-11
4.4739e-12
1.46526e-12
7.01886e-13
0
0
0
0
0
0
0
0
0
0
0
0
0
0
0
0
0
0
0
0
0
0
0
0
0
0
0
0
1.7983e-20
9.33232e-20
4.65544e-19
2.2324e-18
1.02902e-17
4.55945e-17
1.94194e-16
7.95052e-16
3.12886e-15
1.18361e-14
4.30391e-14
1.50434e-13
5.05429e-13
1.63231e-12
5.06724e-12
1.51206e-11
4.33706e-11
1.19577e-10
3.16904e-10
8.07301e-10
1.97684e-09
4.65363e-09
1.05665e-08
2.31707e-08
4.89105e-08
9.92405e-08
1.93553e-07
3.62854e-07
6.53865e-07
1.13257e-06
1.88567e-06
3.01779e-06
4.64229e-06
6.86431e-06
9.75623e-06
1.33287e-05
1.7503e-05
2.20931e-05
2.68053e-05
3.12609e-05
3.50428e-05
3.77584e-05
3.9106e-05
3.89302e-05
3.72516e-05
3.42621e-05
3.02897e-05
2.57386e-05
2.10224e-05
1.65039e-05
1.24536e-05
9.03253e-06
6.29686e-06
4.21928e-06
2.71737e-06
1.68212e-06
1.00082e-06
5.72334e-07
3.1458e-07
1.66187e-07
8.43821e-08
4.11798e-08
1.93151e-08
8.7074e-09
3.77271e-09
1.57105e-09
6.28776e-10
2.41862e-10
8.94136e-11
3.17688e-11
1.0848e-11
3.55087e-12
1.70134e-12
0
0
0
0
0
0
0
0
0
0
0
0
0
0
0
0
0
0
0
0
0
0
0
0
0
0
0
0
4.19089e-20
2.17964e-19
1.0896e-18
5.23545e-18
2.41792e-17
1.07332e-16
4.57954e-16
1.87808e-15
7.40301e-15
2.80481e-14
1.02141e-13
3.57519e-13
1.20282e-12
3.88959e-12
1.20896e-11
3.61178e-11
1.03714e-10
2.86258e-10
7.59424e-10
1.9365e-09
4.74635e-09
1.11826e-08
2.54028e-08
5.57048e-08
1.17568e-07
2.38505e-07
4.65063e-07
8.71637e-07
1.57025e-06
2.719e-06
4.52543e-06
7.2397e-06
1.11324e-05
1.6454e-05
2.33755e-05
3.19198e-05
4.18958e-05
5.28554e-05
6.40942e-05
7.47063e-05
8.36961e-05
9.01283e-05
9.3288e-05
9.28106e-05
8.87516e-05
8.15757e-05
7.20694e-05
6.1199e-05
4.99507e-05
3.91869e-05
2.95488e-05
2.1416e-05
1.49188e-05
9.98914e-06
6.42859e-06
3.97645e-06
2.36411e-06
1.35092e-06
7.41953e-07
3.91661e-07
1.98713e-07
9.69003e-08
4.54153e-08
2.04577e-08
8.85698e-09
3.68542e-09
1.47387e-09
5.66497e-10
2.09268e-10
7.42969e-11
2.53511e-11
8.28306e-12
3.95283e-12
0
0
0
0
0
0
0
0
0
0
0
0
0
0
0
0
0
0
0
0
0
0
0
0
0
0
0
1.86514e-20
1.02106e-19
5.30221e-19
2.43942e-18
1.17661e-17
5.46168e-17
2.42851e-16
1.038e-15
4.26408e-15
1.68353e-14
6.38832e-14
2.32984e-13
8.16653e-13
2.75122e-12
8.90818e-12
2.77224e-11
8.29188e-11
2.38373e-10
6.58632e-10
1.7491e-09
4.46448e-09
1.09526e-08
2.58265e-08
5.8697e-08
1.28724e-07
2.71657e-07
5.51027e-07
1.07428e-06
2.01303e-06
3.62559e-06
6.27626e-06
1.04428e-05
1.67006e-05
2.5671e-05
3.79272e-05
5.38589e-05
7.35131e-05
9.64432e-05
0.000121613
0.000147397
0.000171711
0.000192269
0.000206929
0.000214061
0.000212841
0.00020341
0.00018685
0.000164974
0.000140002
0.000114198
8.95319e-05
6.74679e-05
4.88668e-05
3.40195e-05
2.27634e-05
1.464e-05
9.04974e-06
5.37681e-06
3.07046e-06
1.68528e-06
8.89051e-07
4.50783e-07
2.19682e-07
1.02897e-07
4.63224e-08
2.00428e-08
8.33499e-09
3.3314e-09
1.27974e-09
4.72487e-10
1.6766e-10
5.71785e-11
1.85831e-11
8.72787e-12
0
0
0
0
0
0
0
0
0
0
0
0
0
0
0
0
0
0
0
0
0
0
0
0
0
0
0
0.0033494
0.0107097
0.0168648
0.019136
0.0172986
0.0112697
0.00362421
2.16708e-05
6.5219e-08
1.30905e-10
3.37386e-13
5.14646e-13
1.80479e-12
6.08554e-12
1.97211e-11
6.1422e-11
1.83857e-10
5.28936e-10
1.4625e-09
3.88648e-09
9.92638e-09
2.43669e-08
5.74897e-08
1.30691e-07
2.86564e-07
6.04583e-07
1.22594e-06
2.38924e-06
4.4754e-06
8.05726e-06
1.39421e-05
2.31876e-05
3.70657e-05
5.69481e-05
8.40965e-05
0.000119363
0.000162839
0.000213521
0.000269104
0.000325985
0.000379556
0.000424769
0.00045691
0.0004724
0.000469451
0.000448408
0.00041168
0.000363285
0.000308133
0.000251207
0.000196846
0.00014826
0.000107331
7.46833e-05
4.99488e-05
3.21089e-05
1.98393e-05
1.17822e-05
6.72547e-06
3.68991e-06
1.94583e-06
9.86257e-07
4.80472e-07
2.24978e-07
1.01252e-07
4.37981e-08
1.82095e-08
7.27661e-09
2.79478e-09
1.0317e-09
3.66051e-10
1.24829e-10
4.00467e-11
1.80099e-11
0
0
0
0
0
0
0
0
0
0
0
0
0
0
0
0
0
0
0
0
0
0
0
0
0
0.00699612
0.0220803
0.0409723
0.061495
0.0764377
0.0820989
0.078084
0.0643624
0.0442603
0.0248063
0.00823623
0.000145117
1.3022e-06
7.81561e-09
3.89995e-11
1.31804e-11
4.23133e-11
1.31808e-10
3.94612e-10
1.13543e-09
3.13992e-09
8.34534e-09
2.13177e-08
5.23372e-08
1.23497e-07
2.80703e-07
6.15163e-07
1.29701e-06
2.62829e-06
5.119e-06
9.58249e-06
1.72408e-05
2.98141e-05
4.95535e-05
7.91625e-05
0.000121551
0.000179387
0.00025446
0.000346935
0.000454649
0.000572671