# vtk DataFile Version 2.0
Structured output generated by Nextsim
ASCII
DATASET STRUCTURED_POINTS
DIMENSIONS 3 3 1
ORIGIN 0 0 0
SPACING 0.5 0.5 0.5
POINT_DATA 9
SCALARS interpolate DOUBLE 1
LOOKUP_TABLE default
6.16651e-08
1.97056e-06
3.87945e-06
3.11599e-08
3.15666e-05
6.3102e-05
6.54784e-10
6.11626e-05
0.000122325
CELL_DATA 4
SCALARS average DOUBLE 1
LOOKUP_TABLE default
6.16651e-08
3.87945e-06
6.54784e-10
0.000122325
