# vtk DataFile Version 2.0
Structured output generated by Nextsim
ASCII
DATASET STRUCTURED_POINTS
DIMENSIONS 3 3 1
ORIGIN 0 0 0
SPACING 0.5 0.5 0.5
POINT_DATA 9
SCALARS interpolate DOUBLE 1
LOOKUP_TABLE default
8.69071e-09
2.12749e-07
4.16807e-07
4.40585e-09
2.60974e-06
5.21508e-06
1.21e-10
5.00673e-06
1.00133e-05
CELL_DATA 4
SCALARS average DOUBLE 1
LOOKUP_TABLE default
8.69071e-09
4.16807e-07
1.21e-10
1.00133e-05
