# vtk DataFile Version 2.0
Structured output generated by Nextsim
ASCII
DATASET STRUCTURED_POINTS
DIMENSIONS 3 3 1
ORIGIN 0 0 0
SPACING 0.5 0.5 0.5
POINT_DATA 9
SCALARS interpolate DOUBLE 1
LOOKUP_TABLE default
5.78148e-09
1.3524e-07
2.64698e-07
2.9329e-09
1.58515e-06
3.16737e-06
8.43157e-11
3.03507e-06
6.07005e-06
CELL_DATA 4
SCALARS average DOUBLE 1
LOOKUP_TABLE default
5.78148e-09
2.64698e-07
8.43157e-11
6.07005e-06
