# vtk DataFile Version 2.0
Structured output generated by Nextsim
ASCII
DATASET STRUCTURED_POINTS
DIMENSIONS 3 3 1
ORIGIN 0 0 0
SPACING 0.5 0.5 0.5
POINT_DATA 9
SCALARS interpolate DOUBLE 1
LOOKUP_TABLE default
3.11315e-09
6.82812e-08
1.33449e-07
1.58082e-09
7.50381e-07
1.49918e-06
4.84874e-11
1.43248e-06
2.86491e-06
CELL_DATA 4
SCALARS average DOUBLE 1
LOOKUP_TABLE default
3.11315e-09
1.33449e-07
4.84874e-11
2.86491e-06
