# vtk DataFile Version 2.0
Structured output generated by Nextsim
ASCII
DATASET STRUCTURED_POINTS
DIMENSIONS 101 101 1
ORIGIN 0 0 0
SPACING 0.01 0.01 0.01
POINT_DATA 10201
SCALARS interpolate DOUBLE 1
LOOKUP_TABLE default
0
0
0
0
0
0
0
0
0
0
0
0
0
0
0
0
0
0
0
0
0
0
0
0
0
0
0
0
0
0
0
0
0
0
0
0
0
0
0
0
0
0
0
0
0
0
0
0
0
0
0
0
0
0
0
0
0
0
0
0
0
0
0
0
0
0
0
0
0
0
0
0
0
0
0
0
0
0
0
0
0
0
0
0
0
0
0
0
0
0
0
0
0
0
0
0
0
0
0
0
0
0
0
0
0
0
0
0
0
0
0
0
0
0
0
0
0
0
0
0
0
0
0
0
0
0
0
0
0
0
0
0
0
0
0
0
0
0
0
0
0
0
0
0
0
0
0
0
0
0
0
0
0
0
0
0
0
0
0
0
0
0
0
0
0
0
0
0
0
0
0
0
0
0
0
0
0
0
0
0
0
0
0
0
0
0
0
0
0
0
0
0
0
0
0
0
0
0
0
0
0
0
0
0
0
0
0
0
0
0
0
0
0
0
0
0
0
0
0
0
0
0
0
0
0
0
0
0
0
0
0
0
0
0
0
0
0
0
0
0
0
0
0
0
0
0
0
0
0
0
0
0
0
0
0
0
0
0
0
0
0
0
0
0
0
0
0
0
0
0
0
0
0
0
0
0
0
0
0
0
0
0
0
0
0
0
0
0
0
0
0
0
0
0
0
0
0
0
0
0
0
0
0
0
0
0
0
0
0
0
0
0
0
0
0
0
0
0
0
0
0
0
0
0
0
0
0
0
0
0
0
0
0
0
0
0
0
0
0
0
0
0
0
0
0
0
0
0
0
0
0
0
0
0
0
0
0
0
0
0
0
0
0
0
0
0
0
0
0
0
0
0
0
0
0
0
0
0
0
0
0
0
0
0
0
0
0
0
0
0
0
0
0
0
0
0
0
0
0
0
0
0
0
0
0
0
0
0
0
0
0
0
0
0
0
0
0
0
0
0
0
0
0
0
0
0
0
0
0
0
0
0
0
0
0
0
0
0
0
0
0
0
0
0
0
0
0
0
0
0
0
0
0
0
0
0
0
0
0
0
0
0
0
0
0
0
0
0
0
0
0
0
0
0
0
0
0
0
0
0
0
0
0
0
0
0
0
0
0
0
0
0
0
0
0
0
0
0
0
0
0
0
0
0
0
0
0
0
0
0
0
0
0
0
0
0
0
0
0
0
0
0
0
0
0
0
0
0
0
0
0
0
0
0
0
0
0
0
0
0
0
0
0
0
0
0
0
0
0
0
0
0
0
0
0
0
0
0
0
0
0
0
0
0
0
0
0
0
0
0
0
0
0
0
0
0
0
0
0
0
0
0
0
0
0
0
0
0
0
0
0
0
0
0
0
0
0
0
0
0
0
0
0
0
0
0
0
0
0
0
0
0
0
0
0
0
0
0
0
0
0
0
0
0
0
0
0
0
0
0
0
0
0
0
0
0
0
0
0
0
0
0
0
0
0
0
0
0
0
0
0
0
0
0
0
0
0
0
0
0
0
0
0
0
0
0
0
0
0
0
0
0
0
0
0
0
0
0
0
0
0
0
0
0
0
0
0
0
0
0
0
0
0
0
0
0
0
0
0
0
0
0
0
0
0
0
0
0
0
0
0
0
0
0
0
0
0
0
0
0
0
0
0
0
0
0
0
0
0
0
0
0
0
0
0
0
0
0
0
0
0
0
0
0
0
0
0
0
0
0
0
0
0
0
0
0
0
0
0
0
0
0
0
0
0
0
0
0
0
0
0
0
0
0
0
0
0
0
0
0
0
0
0
0
0
0
0
0
0
0
0
0
0
0
0
0
0
0
0
0
0
0
0
0
0
0
0
0
0
0
0
0
0
0
0
0
0
0
0
0
0
0
0
0
0
0
0
0
0
0
0
0
0
0
0
0
0
0
0
0
0
0
0
0
0
0
0
0
0
0
0
0
0
0
0
0
0
0
0
0
0
0
0
0
0
0
0
0
0
0
0
0
0
0
0
0
0
0
0
0
0
0
0
0
0
0
0
0
0
0
0
0
0
0
0
0
0
0
0
0
0
0
0
0
0
0
0
0
0
0
0
0
0
0
0
0
0
0
0
0
0
0
0
0
0
0
0
0
0
0
0
0
0
0
0
0
0
0
0
0
0
0
0
0
0
0
0
0
0
0
0
0
0
0
0
0
0
0
0
0
0
0
0
0
0
0
0
0
0
0
0
0
0
0
0
0
0
0
0
0
0
0
0
0
0
0
0
0
0
0
0
0
0
0
0
0
0
0
0
0
0
0
0
0
0
0
0
0
0
0
0
0
0
0
0
0
0
0
0
0
0
0
0
0
0
0
0
0
0
0
0
0
0
0
0
0
0
0
0
0
0
0
0
0
0
0
0
0
0
0
0
0
0
0
0
0
0
0
0
0
0
0
0
0
0
0
0
0
0
0
0
0
0
0
0
0
0
0
0
0
0
0
0
0
0
0
0
0
0
0
0
0
0
0
0
0
0
0
0
0
0
0
0
0
0
0
0
0
0
0
0
0
0
0
0
0
0
0
0
0
0
0
0
0
0
0
0
0
0
0
0
0
0
0
0
0
0
0
0
0
0
0
0
0
0
0
0
0
0
0
0
0
0
0
0
0
0
0
0
0
0
0
0
0
0
0
0
0
0
0
0
0
0
0
0
0
0
0
0
0
0
0
0
0
0
0
0
0
0
0
0
0
0
0
0
0
0
0
0
0
0
0
0
0
0
0
0
0
0
0
0
0
0
0
0
0
0
0
0
0
0
0
0
0
0
0
0
0
0
0
0
0
0
0
0
0
0
0
0
0
0
0
0
0
0
0
0
0
0
0
0
0
0
0
0
0
0
0
0
0
0
0
0
0
0
0
0
0
0
0
0
0
1.02901e-18
1.13726e-18
-3.79888e-17
-4.81175e-17
2.50819e-16
7.05555e-16
3.94817e-16
-6.1213e-16
-5.57376e-16
1.50462e-16
1.45607e-16
0
0
0
0
0
0
0
0
0
0
0
0
0
0
0
0
0
0
0
0
0
0
0
0
0
0
0
0
0
0
0
0
0
0
0
0
0
0
0
0
0
0
0
0
0
0
0
0
0
0
0
0
0
0
0
0
0
0
0
0
0
0
0
0
0
0
0
0
0
0
0
0
0
0
0
0
0
0
0
0
0
0
0
0
0
0
0
0
0
1.00739e-17
4.84534e-16
2.9327e-16
-1.48017e-14
-1.6702e-14
8.54518e-14
2.22895e-13
1.19465e-13
-1.62843e-13
-1.46359e-13
3.47072e-14
3.39136e-14
-2.06201e-16
0
0
0
0
0
0
0
0
0
0
0
0
0
0
0
0
0
0
0
0
0
0
0
0
0
0
0
0
0
0
0
0
0
0
0
0
0
0
0
0
0
0
0
0
0
0
0
0
0
0
0
0
0
0
0
0
0
0
0
0
0
0
0
0
0
0
0
0
0
0
0
0
0
0
0
0
0
0
0
0
0
0
0
0
0
0
0
7.28193e-17
3.78802e-15
1.17673e-13
4.36192e-14
-2.95589e-12
-3.10045e-12
1.49122e-11
3.66003e-11
1.90404e-11
-2.26256e-11
-2.01593e-11
4.21731e-12
4.13874e-12
-4.43781e-14
7.13913e-16
0
0
0
0
0
0
0
0
0
0
0
0
0
0
0
0
0
0
0
0
0
0
0
0
0
0
0
0
0
0
0
0
0
0
0
0
0
0
0
0
0
0
0
0
0
0
0
0
0
0
0
0
0
0
0
0
0
0
0
0
0
0
0
0
0
0
0
0
0
0
0
0
0
0
0
0
0
0
0
0
0
0
0
0
0
3.91353e-16
1.89837e-14
1.16718e-12
1.74609e-11
4.04879e-12
-3.76801e-10
-3.70589e-10
1.65572e-09
3.84786e-09
1.94751e-09
-2.00304e-09
-1.78256e-09
3.17952e-10
3.30848e-10
-5.05931e-12
1.52434e-13
1.02706e-15
0
0
0
0
0
0
0
0
0
0
0
0
0
0
0
0
0
0
0
0
0
0
0
0
0
0
0
0
0
0
0
0
0
0
0
0
0
0
0
0
0
0
0
0
0
0
0
0
0
0
0
0
0
0
0
0
0
0
0
0
0
0
0
0
0
0
0
0
0
0
0
0
0
0
0
0
0
0
0
0
0
0
0
1.42278e-15
7.28422e-14
7.86461e-12
1.07248e-10
1.94163e-09
3.41759e-10
-3.28433e-08
-3.11e-08
1.2729e-07
2.81572e-07
1.39966e-07
-1.23287e-07
-1.09401e-07
1.73827e-08
1.76669e-08
-3.71e-10
1.74289e-11
2.06334e-13
-6.14898e-16
0
0
0
0
0
0
0
0
0
0
0
0
0
0
0
0
0
0
0
0
0
0
0
0
0
0
0
0
0
0
0
0
0
0
0
0
0
0
0
0
0
0
0
0
0
0
0
0
0
0
0
0
0
0
0
0
0
0
0
0
0
0
0
0
0
0
0
0
0
0
0
0
0
0
0
0
0
0
0
0
0
3.13285e-15
2.64747e-13
3.25131e-11
4.42483e-10
2.13942e-08
1.31796e-07
1.32576e-08
-2.07643e-06
-1.85461e-06
7.03921e-06
1.48663e-05
7.21954e-06
-5.40863e-06
-4.87114e-06
5.79706e-07
7.53993e-07
-1.88425e-08
1.24601e-09
2.22896e-11
-1.18559e-13
9.04137e-16
0
0
0
0
0
0
0
0
0
0
0
0
0
0
0
0
0
0
0
0
0
0
0
0
0
0
0
0
0
0
0
0
0
0
0
0
0
0
0
0
0
0
0
0
0
0
0
0
0
0
0
0
0
0
0
0
0
0
0
0
0
0
0
0
0
0
0
0
0
0
0
0
0
0
0
0
0
0
0
4.86379e-15
6.4425e-13
5.324e-11
1.47512e-09
1.09294e-07
4.81968e-07
8.49208e-06
1.24604e-06
-8.83688e-05
-7.77806e-05
0.00027293
0.000554697
0.000269486
-0.000164878
-0.00015051
1.74241e-05
1.8283e-05
-7.04441e-07
6.80081e-08
1.50669e-09
-1.21469e-11
1.58928e-13
0
0
0
0
0
0
0
0
0
0
0
0
0
0
0
0
0
0
0
0
0
0
0
0
0
0
0
0
0
0
0
0
0
0
0
0
0
0
0
0
0
0
0
0
0
0
0
0
0
0
0
0
0
0
0
0
0
0
0
0
0
0
0
0
0
0
0
0
0
0
0
0
0
0
0
0
0
0
5.67653e-15
9.90188e-13
5.25166e-11
3.6403e-09
1.17813e-07
2.25522e-06
0.000111217
0.000212478
-5.09169e-05
-0.0027643
-0.00212976
0.00773427
0.0148464
0.00702138
-0.00354637
-0.00339583
9.73643e-05
0.00049792
-1.76394e-05
2.32341e-06
7.79003e-08
-8.08905e-10
1.48343e-11
0
0
0
0
0
0
0
0
0
0
0
0
0
0
0
0
0
0
0
0
0
0
0
0
0
0
0
0
0
0
0
0
0
0
0
0
0
0
0
0
0
0
0
0
0
0
0
0
0
0
0
0
0
0
0
0
0
0
0
0
0
0
0
0
0
0
0
0
0
0
0
0
0
0
0
0
0
1.96398e-15
5.36563e-13
5.70812e-12
3.34757e-09
-2.11085e-08
3.43348e-06
3.2557e-05
0.000229789
0.0272616
0.139105
0.299297
0.397599
0.467434
0.515834
0.461552
0.394385
0.293721
0.121434
0.0188512
-0.00036304
7.97459e-05
2.51642e-06
-3.79561e-08
9.05698e-10
0
0
0
0
0
0
0
0
0
0
0
0
0
0
0
0
0
0
0
0
0
0
0
0
0
0
0
0
0
0
0
0
0
0
0
0
0
0
0
0
0
0
0
0
0
0
0
0
0
0
0
0
0
0
0
0
0
0
0
0
0
0
0
0
0
0
0
0
0
0
0
0
0
0
0
0
-4.41211e-15
-5.50204e-13
-7.23816e-11
-1.30225e-09
-2.39894e-07
6.74306e-07
-0.00021209
4.93718e-05
0.0961032
0.36057
0.62692
0.801975
0.899653
0.959966
1.00153
0.954791
0.897753
0.796676
0.604109
0.331035
0.0802346
0.00110899
8.23731e-05
-1.33186e-06
3.69673e-08
0
0
0
0
0
0
0
0
0
0
0
0
0
0
0
0
0
0
0
0
0
0
0
0
0
0
0
0
0
0
0
0
0
0
0
0
0
0
0
0
0
0
0
0
0
0
0
0
0
0
0
0
0
0
0
0
0
0
0
0
0
0
0
0
0
0
0
0
0
0
0
0
0
0
0
4.13325e-15
7.01732e-13
5.4149e-11
3.92379e-09
7.27441e-08
6.62683e-06
-3.4673e-05
0.00274946
0.186935
0.529894
0.833512
0.987764
1
1
1
1
0.999999
0.999981
0.999706
0.982787
0.813191
0.495506
0.166488
0.00107559
-3.3407e-05
1.19995e-06
0
0
0
0
0
0
0
0
0
0
0
0
0
0
0
0
0
0
0
0
0
0
0
0
0
0
0
0
0
0
0
0
0
0
0
0
0
0
0
0
0
0
0
0
0
0
0
0
0
0
0
0
0
0
0
0
0
0
0
0
0
0
0
0
0
0
0
0
0
0
0
0
0
0
3.89723e-15
6.75908e-13
6.31468e-11
3.72217e-09
1.66538e-07
5.19577e-06
0.000113556
0.00213327
0.188167
0.620052
0.933909
1
1
1
1
1
1
1
1
1
1.00003
1.00056
0.915443
0.58082
0.165199
-0.000681532
2.14092e-05
5.88073e-20
4.5609e-20
3.39905e-20
2.43512e-20
1.67701e-20
1.1102e-20
0
0
0
0
0
0
0
0
0
0
0
0
0
0
0
0
0
0
0
0
0
0
0
0
0
0
0
0
0
0
0
0
0
0
0
0
0
0
0
0
0
0
0
0
0
0
0
0
0
0
0
0
0
0
0
0
0
0
0
0
0
0
0
0
0
0
0
-2.83424e-16
-3.7646e-14
-2.31417e-12
-1.39563e-10
5.63003e-09
-2.9049e-07
2.71159e-05
-0.000212243
0.098155
0.53153
0.933135
1
1
1
1
1
1
1
1
1
1
1
1.00003
1.00041
0.913986
0.49051
0.0773512
0.00044286
3.74332e-19
2.86242e-19
2.13312e-19
1.5281e-19
1.05231e-19
6.96601e-20
4.43277e-20
2.71153e-20
1.59441e-20
0
0
0
0
0
0
0
0
0
0
0
0
0
0
0
0
0
0
0
0
0
0
0
0
0
0
0
0
0
0
0
0
0
0
0
0
0
0
0
0
0
0
0
0
0
0
0
0
0
0
0
0
0
0
0
0
0
0
0
0
0
0
0
9.04137e-16
1.65181e-13
1.60322e-11
1.00261e-09
4.44128e-08
1.4197e-06
3.42133e-05
0.000567037
0.0275687
0.359823
0.832789
1
1
1
1
1
1
1
1
1
1
1
1
0.999995
0.999862
0.998017
0.804535
0.32438
0.0179957
2.20788e-18
1.72677e-18
1.28675e-18
9.21743e-19
6.34714e-19
4.20144e-19
2.67342e-19
1.63525e-19
9.61496e-20
5.43444e-20
2.95259e-20
1.54203e-20
0
0
0
0
0
0
0
0
0
0
0
0
0
0
0
0
0
0
0
0
0
0
0
0
0
0
0
0
0
0
0
0
0
0
0
0
0
0
0
0
0
0
0
0
0
0
0
0
0
0
0
0
0
0
0
0
0
0
0
0
9.37051e-16
1.65793e-13
1.55568e-11
9.28044e-10
3.86207e-08
1.12162e-06
2.34995e-05
0.000284445
0.140976
0.627175
0.986461
1
1
1
1
1
1
1
1
1
1
1
1
0.999999
0.999977
0.999538
0.980778
0.589682
0.108465
1.29205e-17
1.00126e-17
7.46089e-18
5.34425e-18
3.6799e-18
2.43577e-18
1.54984e-18
9.47948e-19
5.57351e-19
3.15004e-19
1.71138e-19
8.93752e-20
4.48667e-20
2.16505e-20
1.00425e-20
0
0
0
0
0
0
0
0
0
0
0
0
0
0
0
0
0
0
0
0
0
0
0
0
0
0
0
0
0
0
0
0
0
0
0
0
0
0
0
0
0
0
0
0
0
0
0
0
0
0
0
0
0
0
0
0
0
-4.16536e-15
-8.3594e-13
-8.8597e-11
-6.02008e-09
-2.87548e-07
-9.87871e-06
-0.000245572
-0.00436596
0.305254
0.809384
1
1
1
1
1
1
1
1
1
1
1
1
1
1
1
1.00006
1.00145
0.763038
0.261654
7.17763e-17
5.58053e-17
4.15816e-17
2.97839e-17
2.05075e-17
1.35737e-17
8.63635e-18
5.28216e-18
3.10555e-18
1.75513e-18
9.53506e-19
4.9794e-19
2.49959e-19
1.20613e-19
5.59442e-20
2.49428e-20
1.06896e-20
0
0
0
0
0
0
0
0
0
0
0
0
0
0
0
0
0
0
0
0
0
0
0
0
0
0
0
0
0
0
0
0
0
0
0
0
0
0
0
0
0
0
0
0
0
0
0
0
0
0
0
0
0
0
0
-4.61295e-15
-9.15798e-13
-9.6049e-11
-6.43297e-09
-3.01336e-07
-1.00443e-05
-0.000238349
-0.00385146
0.403379
0.907002
1
1
1
1
1
1
1
1
1
1
1
1
1
1
0.999994
0.999861
0.997688
0.861953
0.364131
3.85464e-16
2.9896e-16
2.22753e-16
1.59547e-16
1.09852e-16
7.27069e-17
4.62588e-17
2.82918e-17
1.66331e-17
9.40005e-18
5.10657e-18
2.66667e-18
1.33858e-18
6.4589e-19
2.99574e-19
1.33561e-19
5.72382e-20
2.35785e-20
0
0
0
0
0
0
0
0
0
0
0
0
0
0
0
0
0
0
0
0
0
0
0
0
0
0
0
0
0
0
0
0
0
0
0
0
0
0
0
0
0
0
0
0
0
0
0
0
0
0
0
0
1.67683e-20
4.41996e-20
3.74893e-15
8.61876e-13
1.03864e-10
8.03491e-09
4.37696e-07
1.72613e-05
0.000497849
0.0104839
0.470965
0.960962
1
1
1
1
1
1
1
1
1
1
1
1
1
1
0.999997
0.999922
0.998288
0.93207
0.433707
1.98623e-15
1.53943e-15
1.14699e-15
8.21505e-16
5.65607e-16
3.74344e-16
2.38164e-16
1.45657e-16
8.56308e-17
4.8392e-17
2.62882e-17
1.37274e-17
6.89052e-18
3.3247e-18
1.54201e-18
6.87466e-19
2.94608e-19
1.21357e-19
4.80514e-20
1.82881e-20
0
0
0
0
0
0
0
0
0
0
0
0
0
0
0
0
0
0
0
0
0
0
0
0
0
0
0
0
0
0
0
0
0
0
0
0
0
0
0
0
0
0
0
0
0
0
0
0
1.06148e-20
3.02831e-20
8.30442e-20
2.18898e-19
6.95472e-15
1.60906e-12
1.95512e-10
1.52457e-08
8.36655e-07
3.31462e-05
0.000957637
0.0199359
0.519384
1.00037
1
1
1
1
1
1
1
1
1
1
1
1
1
1
0.999999
0.999967
0.998975
0.981272
0.482265
9.83069e-15
7.61928e-15
5.67677e-15
4.06576e-15
2.79921e-15
1.85259e-15
1.17862e-15
7.20803e-16
4.23746e-16
2.39463e-16
1.30081e-16
6.7925e-17
3.40945e-17
1.64503e-17
7.62952e-18
3.40136e-18
1.45759e-18
6.00405e-19
2.37726e-19
9.04754e-20
3.3098e-20
1.16383e-20
0
0
0
0
0
0
0
0
0
0
0
0
0
0
0
0
0
0
0
0
0
0
0
0
0
0
0
0
0
0
0
0
0
0
0
0
0
0
0
0
0
0
0
0
0
1.70228e-20
5.05247e-20
1.44143e-19
3.95281e-19
1.04194e-18
2.66867e-15
6.38047e-13
7.99856e-11
6.43182e-09
3.63922e-07
1.4878e-05
0.000444845
0.00961013
0.46765
0.95847
1
1
1
1
1
1
1
1
1
1
1
1
1
1
0.999998
0.999935
0.998551
0.927572
0.428958
4.67685e-14
3.62473e-14
2.70055e-14
1.93412e-14
1.33158e-14
8.81256e-15
5.60643e-15
3.42862e-15
2.01557e-15
1.13899e-15
6.18711e-16
3.23068e-16
1.62158e-16
7.82383e-17
3.62856e-17
1.61763e-17
6.93193e-18
2.85532e-18
1.13052e-18
4.30254e-19
1.57394e-19
5.53436e-20
1.87035e-20
0
0
0
0
0
0
0
0
0
0
0
0
0
0
0
0
0
0
0
0
0
0
0
0
0
0
0
0
0
0
0
0
0
0
0
0
0
0
0
0
0
0
0
2.52197e-20
7.78751e-20
2.31139e-19
6.59429e-19
1.80835e-18
4.76673e-18
-6.74776e-16
-1.79515e-13
-2.45398e-11
-2.13549e-09
-1.29332e-07
-5.55242e-06
-0.00016796
-0.00342651
0.398016
0.901277
0.999998
1
1
1
1
1
1
1
1
1
1
1
1
1
0.999997
0.9999
0.998256
0.859882
0.36153
2.13861e-13
1.65746e-13
1.23485e-13
8.84372e-14
6.0885e-14
4.02936e-14
2.56338e-14
1.5676e-14
9.21524e-15
5.20741e-15
2.82865e-15
1.47699e-15
7.41334e-16
3.57674e-16
1.6588e-16
7.39489e-17
3.16883e-17
1.30525e-17
5.16785e-18
1.96675e-18
7.19458e-19
2.52975e-19
8.5493e-20
2.76519e-20
1.30792e-20
0
0
0
0
0
0
0
0
0
0
0
0
0
0
0
0
0
0
0
0
0
0
0
0
0
0
0
0
0
0
0
0
0
0
0
0
0
0
0
1.03276e-20
3.45173e-20
1.10888e-19
3.42411e-19
1.01631e-18
2.89951e-18
7.95136e-18
2.09596e-17
-5.07181e-16
-1.49545e-13
-2.08479e-11
-1.85156e-09
-1.14747e-07
-5.0685e-06
-0.000159811
-0.00348293
0.297134
0.800315
0.999853
1
1
1
1
1
1
1
1
1
1
1
1
1
1
0.999899
1.00072
0.759363
0.258543
9.39971e-13
7.28485e-13
5.42727e-13
3.88683e-13
2.67586e-13
1.77085e-13
1.12655e-13
6.88917e-14
4.04977e-14
2.28843e-14
1.24305e-14
6.49051e-15
3.25768e-15
1.57172e-15
7.28911e-16
3.24942e-16
1.39241e-16
5.73527e-17
2.27073e-17
8.64167e-18
3.16118e-18
1.11152e-18
3.75636e-19
1.21524e-19
5.75206e-20
0
0
0
0
0
0
0
0
0
0
0
0
0
0
0
0
0
0
0
0
0
0
0
0
0
0
0
0
0
0
0
0
0
0
0
0
0
0
1.25514e-20
4.36439e-20
1.4587e-19
4.68616e-19
1.44705e-18
4.29502e-18
1.22537e-17
3.36036e-17
8.85787e-17
2.49586e-16
7.97432e-15
1.15041e-12
1.12805e-10
7.67872e-09
3.63523e-07
1.23411e-05
0.000239304
0.129954
0.613127
0.983404
1
1
1
1
1
1
1
1
1
1
1
1
1
0.999985
0.999979
0.975674
0.571798
0.0961164
3.97104e-12
3.07754e-12
2.29276e-12
1.64197e-12
1.13039e-12
7.48065e-13
4.75884e-13
2.91012e-13
1.71068e-13
9.66649e-14
5.25065e-14
2.74156e-14
1.37601e-14
6.63867e-15
3.07875e-15
1.37246e-15
5.88106e-16
2.42235e-16
9.59055e-17
3.64982e-17
1.33511e-17
4.69439e-18
1.58646e-18
5.13368e-19
2.43163e-19
0
0
0
0
0
0
0
0
0
0
0
0
0
0
0
0
0
0
0
0
0
0
0
0
0
0
0
0
0
0
0
0
0
0
0
0
0
1.40919e-20
5.09799e-20
1.7727e-19
5.9249e-19
1.90343e-18
5.87769e-18
1.74459e-17
4.97732e-17
1.36496e-16
3.59803e-16
9.34869e-16
9.38197e-15
1.15113e-12
1.16706e-10
8.26986e-09
4.1895e-07
1.48789e-05
0.000379885
0.0225182
0.341412
0.819435
1.00018
1
1
1
1
1
1
1
1
1
1
0.999999
0.999995
0.999979
0.998868
0.788344
0.301531
0.0120716
1.61251e-11
1.24967e-11
9.30988e-12
6.66725e-12
4.58988e-12
3.03744e-12
1.93225e-12
1.18159e-12
6.94575e-13
3.92478e-13
2.13184e-13
1.1131e-13
5.58665e-14
2.69529e-14
1.24996e-14
5.57206e-15
2.38762e-15
9.83428e-16
3.89353e-16
1.48172e-16
5.42012e-17
1.90576e-17
6.44045e-18
2.08458e-18
9.88098e-19
0
0
0
0
0
0
0
0
0
0
0
0
0
0
0
0
0
0
0
0
0
0
0
0
0
0
0
0
0
0
0
0
0
0
0
0
1.46162e-20
5.50128e-20
1.99021e-19
6.92052e-19
2.31307e-18
7.43103e-18
2.29468e-17
6.811e-17
1.9432e-16
5.32897e-16
1.40473e-15
3.5593e-15
8.65736e-15
1.60939e-14
-6.71348e-13
-7.6913e-11
-5.72235e-09
-3.00165e-07
-1.09539e-05
-0.00027075
0.086258
0.507664
0.921341
1.00018
0.999977
0.999994
1
0.999999
0.999999
1
0.999999
0.999997
1
0.999977
0.999926
1.00028
0.899783
0.464821
0.0653664
7.80684e-11
6.29373e-11
4.87749e-11
3.63362e-11
2.60218e-11
1.79138e-11
1.18546e-11
7.54119e-12
4.61147e-12
2.71073e-12
1.53171e-12
8.31975e-13
4.34395e-13
2.18021e-13
1.05184e-13
4.8779e-14
2.17445e-14
9.31741e-15
3.83768e-15
1.51938e-15
5.78209e-16
2.11506e-16
7.43665e-17
2.5132e-17
8.13641e-18
3.85948e-18
0
0
0
0
0
0
0
0
0
0
0
0
0
0
0
0
0
0
0
0
0
0
0
0
0
0
0
0
0
0
0
0
0
0
0
1.40049e-20
5.48423e-20
2.0642e-19
7.46777e-19
2.59679e-18
8.67942e-18
2.7884e-17
8.61056e-17
2.55578e-16
7.29176e-16
1.99968e-15
5.27123e-15
1.33563e-14
3.25304e-14
7.61762e-14
1.77676e-13
1.55023e-12
1.41761e-10
1.18195e-08
6.97558e-07
3.09295e-05
0.000860118
0.17253
0.591838
0.919634
0.999222
0.99977
1.00001
0.999939
0.999965
0.999985
0.999951
0.999906
0.999964
0.999824
0.998129
0.90026
0.552556
0.150617
3.4924e-10
2.92884e-10
2.36115e-10
1.82982e-10
1.36316e-10
9.76201e-11
6.72024e-11
4.44715e-11
2.82897e-11
1.72991e-11
1.01687e-11
5.74583e-12
3.12092e-12
1.6295e-12
8.1783e-13
3.94557e-13
1.82974e-13
8.15647e-14
3.49498e-14
1.43951e-14
5.69912e-15
2.16882e-15
7.93339e-16
2.7894e-16
9.42668e-17
3.0526e-17
1.44905e-17
0
0
0
0
0
0
0
0
0
0
0
0
0
0
0
0
0
0
0
0
0
0
0
0
0
0
0
0
0
0
0
0
0
0
1.23969e-20
5.05073e-20
1.97786e-19
7.44452e-19
2.69328e-18
9.36552e-18
3.13033e-17
1.00568e-16
3.10555e-16
9.21793e-16
2.62994e-15
7.21235e-15
1.90121e-14
4.81734e-14
1.17331e-13
2.74692e-13
6.18202e-13
1.34105e-12
3.52761e-12
1.01735e-10
8.69205e-09
5.46806e-07
2.596e-05
0.000743456
0.170352
0.499712
0.810033
0.981418
1.00061
0.998337
0.998924
0.9994
0.998797
0.998154
1.00092
0.97585
0.790011
0.467666
0.15161
1.4436e-09
1.25938e-09
1.05615e-09
8.51431e-10
6.59826e-10
4.91547e-10
3.52009e-10
2.42324e-10
1.60357e-10
1.02008e-10
6.23769e-11
3.66659e-11
2.07179e-11
1.12531e-11
5.87542e-12
2.9488e-12
1.42262e-12
6.59728e-13
2.94086e-13
1.26012e-13
5.19015e-14
2.05481e-14
7.81958e-15
2.86033e-15
1.00569e-15
3.3987e-16
1.10085e-16
5.2295e-17
0
0
0
0
0
0
0
0
0
0
0
0
0
0
0
0
0
0
0
0
0
0
0
0
0
0
0
0
0
0
0
0
0
1.01374e-20
4.29713e-20
1.75077e-19
6.85607e-19
2.58061e-18
9.33625e-18
3.24659e-17
1.08515e-16
3.48627e-16
1.07658e-15
3.19553e-15
9.11713e-15
2.5003e-14
6.59095e-14
1.67004e-13
4.06755e-13
9.5229e-13
2.14312e-12
4.63631e-12
9.64046e-12
1.90786e-11
9.71518e-12
-2.59926e-09
-1.8563e-07
-9.11802e-06
-0.000313902
0.0804878
0.329669
0.595367
0.771044
0.868901
0.937117
0.985622
0.93244
0.862421
0.760932
0.575921
0.305514
0.0676903
5.51374e-09
5.00375e-09
4.36518e-09
3.66072e-09
2.95113e-09
2.28699e-09
1.70371e-09
1.22006e-09
8.39888e-10
5.55791e-10
3.5355e-10
2.16192e-10
1.27079e-10
7.1805e-11
3.90012e-11
2.0363e-11
1.02199e-11
4.93043e-12
2.28644e-12
1.01922e-12
4.36719e-13
1.79873e-13
7.12122e-14
2.70997e-14
9.91275e-15
3.4853e-15
1.17785e-15
3.81601e-16
1.81411e-16
0
0
0
0
0
0
0
0
0
0
0
0
0
0
0
0
0
0
0
0
0
0
0
0
0
0
0
0
0
0
0
0
0
3.37744e-20
1.43169e-19
5.83317e-19
2.28433e-18
8.59828e-18
3.11076e-17
1.08175e-16
3.6157e-16
1.16163e-15
3.5872e-15
1.06477e-14
3.0379e-14
8.33125e-14
2.19618e-13
5.5648e-13
1.35537e-12
3.17318e-12
7.14123e-12
1.54488e-11
3.21261e-11
6.42185e-11
1.23509e-10
2.45315e-10
2.2075e-09
1.3428e-07
6.53065e-06
0.000234311
0.0188806
0.113725
0.27045
0.370504
0.438159
0.486208
0.433595
0.364176
0.259973
0.0999173
0.0137005
1.94591e-08
1.837e-08
1.66708e-08
1.45432e-08
1.21961e-08
9.83195e-09
7.61928e-09
5.67601e-09
4.06468e-09
2.79809e-09
1.85161e-09
1.17784e-09
7.20231e-10
4.23355e-10
2.39211e-10
1.29928e-10
6.78366e-11
3.40459e-11
1.64249e-11
7.61682e-12
3.3953e-12
1.45483e-12
5.99202e-13
2.37224e-13
9.02749e-14
3.30213e-14
1.16102e-14
3.92362e-15
1.27149e-15
6.04908e-16
0
0
0
0
0
0
0
0
0
0
0
0
0
0
0
0
0
0
0
0
0
0
0
0
0
0
0
0
0
0
0
0
2.45233e-20
1.08157e-19
4.58485e-19
1.86805e-18
7.31557e-18
2.75364e-17
9.96247e-17
3.46442e-16
1.15798e-15
3.72032e-15
1.14887e-14
3.41016e-14
9.7296e-14
2.6683e-13
7.03387e-13
1.78229e-12
4.34098e-12
1.01631e-11
2.2872e-11
4.94795e-11
1.02893e-10
2.05675e-10
3.952e-10
7.29951e-10
1.29603e-09
2.21197e-09
3.62904e-09
5.72337e-09
8.67686e-09
1.26452e-08
1.7715e-08
2.38566e-08
3.0884e-08
3.84338e-08
4.5978e-08
5.28742e-08
5.84515e-08
6.21164e-08
6.34563e-08
6.23163e-08
5.88284e-08
5.33865e-08
4.65728e-08
3.90564e-08
3.14853e-08
2.43994e-08
1.81763e-08
1.30163e-08
8.96024e-09
5.92932e-09
3.77172e-09
2.30634e-09
1.35567e-09
7.65999e-10
4.16051e-10
2.17223e-10
1.09019e-10
5.25943e-11
2.43898e-11
1.0872e-11
4.65846e-12
1.91868e-12
7.59601e-13
2.89062e-13
1.05735e-13
3.71757e-14
1.25634e-14
4.0723e-15
1.93884e-15
0
0
0
0
0
0
0
0
0
0
0
0
0
0
0
0
0
0
0
0
0
0
0
0
0
0
0
0
0
0
0
1.64495e-20
7.54829e-20
3.32915e-19
1.41127e-18
5.75017e-18
2.25189e-17
8.47639e-17
3.06673e-16
1.06646e-15
3.56467e-15
1.14525e-14
3.53668e-14
1.04979e-13
2.9952e-13
8.21422e-13
2.16535e-12
5.48674e-12
1.33637e-11
3.12872e-11
7.04116e-11
1.52322e-10
3.16753e-10
6.33163e-10
1.2166e-09
2.24711e-09
3.98972e-09
6.80934e-09
1.11716e-08
1.76187e-08
2.67105e-08
3.89262e-08
5.45325e-08
7.34382e-08
9.50701e-08
1.1831e-07
1.41533e-07
1.6276e-07
1.79928e-07
1.91208e-07
1.95332e-07
1.91822e-07
1.81084e-07
1.64332e-07
1.43358e-07
1.20221e-07
9.69153e-08
7.51038e-08
5.59482e-08
4.0065e-08
2.75801e-08
1.82507e-08
1.16095e-08
7.09893e-09
4.17274e-09
2.35773e-09
1.28059e-09
6.68603e-10
3.35556e-10
1.61882e-10
7.50699e-11
3.34631e-11
1.43382e-11
5.90545e-12
2.33795e-12
8.89692e-13
3.25434e-13
1.14421e-13
3.86681e-14
1.25369e-14
5.97334e-15
0
0
0
0
0
0
0
0
0
0
0
0
0
0
0
0
0
0
0
0
0
0
0
0
0
0
0
0
0
0
1.0193e-20
4.86658e-20
2.23321e-19
9.84971e-19
4.17549e-18
1.70131e-17
6.6628e-17
2.508e-16
9.07396e-16
3.15551e-15
1.05475e-14
3.38871e-14
1.04648e-13
3.10628e-13
8.86271e-13
2.43058e-12
6.4073e-12
1.62354e-11
3.95435e-11
9.25801e-11
2.08351e-10
4.50727e-10
9.3728e-10
1.87354e-09
3.59993e-09
6.64916e-09
1.18055e-08
2.01486e-08
3.30562e-08
5.21326e-08
7.90343e-08
1.15179e-07
1.61356e-07
2.17295e-07
2.813e-07
3.50063e-07
4.18773e-07
4.8158e-07
5.32374e-07
5.65748e-07
5.77946e-07
5.67558e-07
5.35787e-07
4.86219e-07
4.2416e-07
3.557e-07
2.86745e-07
2.2221e-07
1.65534e-07
1.1854e-07
8.16005e-08
5.39975e-08
3.43483e-08
2.10032e-08
1.23456e-08
6.97562e-09
3.78876e-09
1.97812e-09
9.92768e-10
4.78938e-10
2.22098e-10
9.9002e-11
4.24202e-11
1.74714e-11
6.91686e-12
2.63216e-12
9.62795e-13
3.38511e-13
1.14399e-13
3.70993e-14
1.76897e-14
0
0
0
0
0
0
0
0
0
0
0
0
0
0
0
0
0
0
0
0
0
0
0
0
0
0
0
0
0
0
2.89854e-20
1.38392e-19
6.35076e-19
2.8011e-18
1.18746e-17
4.83842e-17
1.89488e-16
7.13276e-16
2.58067e-15
8.97449e-15
2.9998e-14
9.63789e-14
2.97633e-13
8.83475e-13
2.52071e-12
6.91303e-12
1.82236e-11
4.61768e-11
1.12471e-10
2.63319e-10
5.92599e-10
1.28197e-09
2.66583e-09
5.32872e-09
1.02389e-08
1.89115e-08
3.35768e-08
5.73059e-08
9.40169e-08
1.48273e-07
2.24784e-07
3.27584e-07
4.58915e-07
6.1801e-07
8.00044e-07
9.95608e-07
1.19102e-06
1.36964e-06
1.5141e-06
1.60901e-06
1.6437e-06
1.61415e-06
1.52378e-06
1.38281e-06
1.20631e-06
1.0116e-06
8.15495e-07
6.31957e-07
4.7077e-07
3.37119e-07
2.32066e-07
1.53565e-07
9.76835e-08
5.97309e-08
3.51095e-08
1.98378e-08
1.07748e-08
5.62551e-09
2.82329e-09
1.36203e-09
6.31612e-10
2.81545e-10
1.20635e-10
4.96854e-11
1.96702e-11
7.4853e-12
2.73798e-12
9.62648e-13
3.25324e-13
1.05528e-13
5.03559e-14
0
0
0
0
0
0
0
0
0
0
0
0
0
0
0
0
0
0
0
0
0
0
0
0
0
0
0
0
0
1.59483e-20
7.92271e-20
3.78281e-19
1.73596e-18
7.65685e-18
3.24601e-17
1.32263e-16
5.17994e-16
1.94987e-15
7.05481e-15
2.45339e-14
8.20074e-14
2.63479e-13
8.13672e-13
2.41526e-12
6.8912e-12
1.88992e-11
4.98209e-11
1.26242e-10
3.07482e-10
7.19887e-10
1.6201e-09
3.50477e-09
7.28807e-09
1.45681e-08
2.79918e-08
5.17013e-08
9.17941e-08
1.56665e-07
2.57027e-07
4.05352e-07
6.1452e-07
8.95553e-07
1.25458e-06
1.68951e-06
2.18715e-06
2.72177e-06
3.25597e-06
3.74428e-06
4.13917e-06
4.39862e-06
4.49343e-06
4.41263e-06
4.16559e-06
3.78019e-06
3.29768e-06
2.76541e-06
2.2293e-06
1.72756e-06
1.28693e-06
9.21569e-07
6.34388e-07
4.19791e-07
2.67031e-07
1.63282e-07
9.59758e-08
5.42289e-08
2.94539e-08
1.53779e-08
7.7177e-09
3.7232e-09
1.72656e-09
7.6962e-10
3.29763e-10
1.35817e-10
5.37692e-11
2.04613e-11
7.48433e-12
2.63142e-12
8.89278e-13
2.88532e-13
1.37787e-13
0
0
0
0
0
0
0
0
0
0
0
0
0
0
0
0
0
0
0
0
0
0
0
0
0
0
0
0
0
4.19004e-20
2.08156e-19
9.93894e-19
4.56114e-18
2.01184e-17
8.52902e-17
3.47533e-16
1.36109e-15
5.12358e-15
1.85378e-14
6.44679e-14
2.15493e-13
6.92358e-13
2.13814e-12
6.3468e-12
1.81087e-11
4.96636e-11
1.30921e-10
3.31742e-10
8.08015e-10
1.89176e-09
4.2574e-09
9.21002e-09
1.91519e-08
3.82826e-08
7.35579e-08
1.35862e-07
2.41219e-07
4.11688e-07
6.75417e-07
1.06518e-06
1.61483e-06
2.35332e-06
3.29677e-06
4.43965e-06
5.74731e-06
7.15215e-06
8.55589e-06
9.839e-06
1.08766e-05
1.15584e-05
1.18075e-05
1.15951e-05
1.0946e-05
9.93321e-06
8.66529e-06
7.26665e-06
5.8579e-06
4.53948e-06
3.38162e-06
2.42157e-06
1.66695e-06
1.10306e-06
7.01662e-07
4.29046e-07
2.52189e-07
1.42493e-07
7.73936e-08
4.0407e-08
2.02791e-08
9.78309e-09
4.53668e-09
2.02224e-09
8.66479e-10
3.5687e-10
1.41282e-10
5.37633e-11
1.96655e-11
6.91416e-12
2.33662e-12
7.58314e-13
3.62407e-13
0
0
0
0
0
0
0
0
0
0
0
0
0
0
0
0
0
0
0
0
0
0
0
0
0
0
0
0
2.0471e-20
1.05815e-19
5.25687e-19
2.51009e-18
1.15194e-17
5.08111e-17
2.15413e-16
8.77761e-16
3.43773e-15
1.29409e-14
4.68224e-14
1.62833e-13
5.44299e-13
1.74879e-12
5.40065e-12
1.60312e-11
4.57406e-11
1.25445e-10
3.30694e-10
8.37957e-10
2.04099e-09
4.77846e-09
1.0754e-08
2.3264e-08
4.83766e-08
9.66992e-08
1.85802e-07
3.43177e-07
6.09298e-07
1.03989e-06
1.70604e-06
2.69055e-06
4.0789e-06
5.94423e-06
8.32725e-06
1.1214e-05
1.4517e-05
1.80654e-05
2.1611e-05
2.48519e-05
2.74728e-05
2.91946e-05
2.98238e-05
2.92874e-05
2.76476e-05
2.50895e-05
2.18869e-05
1.83542e-05
1.47959e-05
1.14658e-05
8.54128e-06
6.11638e-06
4.21036e-06
2.78609e-06
1.77224e-06
1.08367e-06
6.3697e-07
3.59903e-07
1.95477e-07
1.02058e-07
5.12197e-08
2.47095e-08
1.14584e-08
5.10763e-09
2.18848e-09
9.01352e-10
3.56837e-10
1.3579e-10
4.9669e-11
1.7463e-11
5.90156e-12
1.91573e-12
9.16254e-13
0
0
0
0
0
0
0
0
0
0
0
0
0
0
0
0
0
0
0
0
0
0
0
0
0
0
0
0
4.96914e-20
2.56861e-19
1.27612e-18
6.09345e-18
2.7965e-17
1.23353e-16
5.22963e-16
2.13099e-15
8.34609e-15
3.14181e-14
1.13677e-13
3.95338e-13
1.3215e-12
4.24589e-12
1.31124e-11
3.89228e-11
1.11056e-10
3.04577e-10
8.02917e-10
2.03454e-09
4.9555e-09
1.16021e-08
2.61106e-08
5.64848e-08
1.17458e-07
2.34785e-07
4.51125e-07
8.33229e-07
1.47936e-06
2.52482e-06
4.14222e-06
6.53257e-06
9.90341e-06
1.44323e-05
2.02182e-05
2.72271e-05
3.52464e-05
4.38616e-05
5.24701e-05
6.03386e-05
6.67018e-05
7.08823e-05
7.24096e-05
7.11072e-05
6.71258e-05
6.09149e-05
5.31392e-05
4.4562e-05
3.59228e-05
2.78377e-05
2.07372e-05
1.48498e-05
1.02222e-05
6.76427e-06
4.30276e-06
2.631e-06
1.54647e-06
8.73792e-07
4.74588e-07
2.47781e-07
1.24353e-07
5.99906e-08
2.78192e-08
1.24004e-08
5.31325e-09
2.18832e-09
8.66333e-10
3.29672e-10
1.20586e-10
4.23967e-11
1.43278e-11
4.65213e-12
2.22673e-12
0
0
0
0
0
0
0
0
0
0
0
0
0
0
0
0
0
0
0
0
0
0
0
0
0
0
0
2.20377e-20
1.21354e-19
6.04227e-19
2.97752e-18
1.42187e-17
6.52571e-17
2.87852e-16
1.22039e-15
4.97295e-15
1.9477e-14
7.33202e-14
2.65291e-13
9.22616e-13
3.08405e-12
9.90897e-12
3.06015e-11
9.08384e-11
2.59185e-10
7.1083e-10
1.87388e-09
4.74831e-09
1.15654e-08
2.70777e-08
6.09386e-08
1.31828e-07
2.74131e-07
5.47955e-07
1.05286e-06
1.94464e-06
3.45262e-06
5.89255e-06
9.6673e-06
1.5246e-05
2.3113e-05
3.36827e-05
4.71858e-05
6.35433e-05
8.22589e-05
0.000102365
0.000122455
0.000140819
0.000155669
0.000165425
0.00016899
0.00016595
0.000156658
0.000142163
0.000124016
0.000103998
8.3836e-05
6.49669e-05
4.83959e-05
3.46561e-05
2.38563e-05
1.57862e-05
1.00416e-05
6.14012e-06
3.60908e-06
2.03921e-06
1.10757e-06
5.78257e-07
2.90208e-07
1.40002e-07
6.49226e-08
2.89393e-08
1.23997e-08
5.10693e-09
2.02178e-09
7.69362e-10
2.81415e-10
9.89417e-11
3.34369e-11
1.08594e-11
5.20189e-12
0
0
0
0
0
0
0
0
0
0
0
0
0
0
0
0
0
0
0
0
0
0
0
0
0
3.23761e-06
0.001265
0.00622401
0.0136143
0.019726
0.0221975
0.0199082
0.0139156
0.0065021
0.00137496
3.81664e-06
3.30256e-09
4.49569e-12
5.99329e-13
2.06973e-12
6.91859e-12
2.22293e-11
6.86503e-11
2.03784e-10
5.81448e-10
1.59466e-09
4.20383e-09
1.06523e-08
2.59458e-08
6.07461e-08
1.3671e-07
2.95743e-07
6.14985e-07
1.22928e-06
2.36198e-06
4.36258e-06
7.74556e-06
1.32193e-05
2.16874e-05
3.42025e-05
5.1851e-05
7.55629e-05
0.000105855
0.000142551
0.000184537
0.000229642
0.000274711
0.000315907
0.000349221
0.000371107
0.000379102
0.000372282
0.000351436
0.000318918
0.000278209
0.000233302
0.000188072
0.000145742
0.000108568
7.77447e-05
5.35173e-05
3.54135e-05
2.25265e-05
1.37742e-05
8.0963e-06
4.57458e-06
2.48462e-06
1.29721e-06
6.51026e-07
3.14068e-07
1.45641e-07
6.49197e-08
2.78163e-08
1.14564e-08
4.53548e-09
1.72592e-09
6.313e-10
2.21957e-10
7.50096e-11
2.43673e-11
1.16817e-11
0
0
0
0
0
0
0
0
0
0
0
0
0
0
0
0
0
0
0
0
0
0
0
0
0.00130807
0.010023
0.0289402
0.0525008
0.0739606
0.0887437
0.0942253
0.0891558
0.07471
0.0534361
0.0298449
0.0106012
0.00147085
-7.15208e-07
-3.21041e-09
-3.83588e-12
1.49038e-11
4.79365e-11
1.48041e-10
4.39451e-10
1.25387e-09
3.43882e-09
9.06539e-09
2.29713e-08
5.59511e-08
1.30996e-07
2.94809e-07
6.37757e-07
1.32619e-06
2.65088e-06
5.09349e-06
9.40765e-06
1.67028e-05
2.85065e-05
4.67676e-05
7.37554e-05
0.000111813
0.000162946
0.000228269
0.0003074
0.000397938
0.000495204
0.000592392
0.000681226
0.000753063
0.000800258
0.000817498
0.000802791
0.000757838
0.000687716
0.000599928
0.000503092
0.000405557
0.000314277
0.000234114
0.000167648
0.000115404
7.63651e-05
4.85757e-05
2.97024e-05
1.74587e-05
9.86454e-06
5.35778e-06
2.79727e-06
1.40386e-06
6.7725e-07
3.14058e-07
1.39992e-07
5.99826e-08
2.47045e-08
9.78029e-09
3.72177e-09
1.36134e-09
4.78633e-10
1.61753e-10
5.25599e-11
2.52176e-11
0
0
0
0
0
0
0
0
0
0
0
0
0
0
0
0
0
0
0
0
0
0
0
0.00331476
0.0208891
0.0563993
0.0996342
0.139244
0.169041
0.187506
0.193924
0.187997
0.169999
0.140637
0.101361
0.0580811
0.0220067
0.00367681
1.15376e-06
9.6111e-09
7.62359e-11
9.95162e-11
3.06876e-10
9.10938e-10
2.59914e-09
7.12832e-09
1.87916e-08
4.7617e-08
1.15981e-07
2.71541e-07
6.11106e-07
1.322e-06
2.74903e-06
5.49496e-06
1.05582e-05
1.95009e-05
3.46228e-05
5.90903e-05
9.6943e-05
0.000152885
0.000231773
0.000337764
0.000473169
0.000637196
0.000824869
0.00102649
0.00122794
0.00141208
0.00156099
0.00165881
0.00169455
0.00166406
0.00157088
0.00142553
0.00124355
0.00104283
0.000840653
0.000651444
0.00048528
0.000347506
0.000239213
0.000158292
0.000100689
6.1568e-05
3.61888e-05
2.04475e-05
1.11058e-05
5.79826e-06
2.90996e-06
1.40382e-06
6.50989e-07
2.9018e-07
1.24334e-07
5.12085e-08
2.0273e-08
7.71469e-09
2.82188e-09
9.92144e-10
3.35295e-10
1.08979e-10
5.23288e-11
0
0
0
0
0
0
0
0
0
0
0
0
0
0
0
0
0
0
0
0
0
0
0.00334516
0.0256831
0.0745288
0.133424
0.187261
0.231783
0.265316
0.286301
0.293623
0.286862
0.266407
0.233349
0.189233
0.13574
0.0768318
0.0271708
0.00376603
-1.05532e-06
-1.06447e-08
1.32094e-10
6.11181e-10
1.81511e-09
5.17898e-09
1.42037e-08
3.74436e-08
9.48803e-08
2.311e-07
5.41065e-07
1.21767e-06
2.63417e-06
5.47761e-06
1.0949e-05
2.10378e-05
3.88566e-05
6.89879e-05
0.00011774
0.000193164
0.000304631
0.000461819
0.000673011
0.00094281
0.00126964
0.00164359
0.00204531
0.00244672
0.00281362
0.00311032
0.00330524
0.00337644
0.00331569
0.00313003
0.0028404
0.00247782
0.00207786
0.00167502
0.00129802
0.000966931
0.000692412
0.000476636
0.000315399
0.000200625
0.000122675
7.21069e-05
4.07419e-05
2.21284e-05