# vtk DataFile Version 2.0
Structured output generated by Nextsim
ASCII
DATASET STRUCTURED_POINTS
DIMENSIONS 3 3 1
ORIGIN 0 0 0
SPACING 0.5 0.5 0.5
POINT_DATA 9
SCALARS interpolate DOUBLE 1
LOOKUP_TABLE default
1.93634e-08
5.22795e-07
1.02623e-06
9.80369e-09
7.07375e-06
1.41377e-05
2.44001e-10
1.36247e-05
2.72492e-05
CELL_DATA 4
SCALARS average DOUBLE 1
LOOKUP_TABLE default
1.93634e-08
1.02623e-06
2.44001e-10
2.72492e-05
