# vtk DataFile Version 2.0
Structured output generated by Nextsim
ASCII
DATASET STRUCTURED_POINTS
DIMENSIONS 101 101 1
ORIGIN 0 0 0
SPACING 0.01 0.01 0.01
POINT_DATA 10201
SCALARS interpolate DOUBLE 1
LOOKUP_TABLE default
0
0
0
0
0
0
0
0
0
0
0
0
0
0
0
0
0
0
0
0
0
0
0
0
0
0
0
0
0
0
0
0
0
0
0
0
0
0
0
0
0
0
0
0
0
0
0
0
0
0
0
0
0
0
0
0
0
0
0
0
0
0
0
0
0
0
0
0
0
0
0
0
0
0
0
0
0
0
0
0
0
0
0
0
0
0
0
0
0
0
0
0
0
0
0
0
0
0
0
0
0
0
0
0
0
0
0
0
0
0
0
0
0
0
0
0
0
0
0
0
0
0
0
0
0
0
0
0
0
0
0
0
0
0
0
0
0
0
0
0
0
0
0
0
0
0
0
0
0
0
0
0
0
0
0
0
0
0
0
0
0
0
0
0
0
0
0
0
0
0
0
0
0
0
0
0
0
0
0
0
0
0
0
0
0
0
0
0
0
0
0
0
0
0
0
0
0
0
0
0
0
0
0
0
0
0
0
0
0
0
0
0
0
0
0
0
0
0
0
0
0
0
0
0
0
0
0
0
0
0
0
0
0
0
0
0
0
0
0
0
0
0
0
0
0
0
0
0
0
0
0
0
0
0
0
0
0
0
0
0
0
0
0
0
0
0
0
0
0
0
0
0
0
0
0
0
0
0
0
0
0
0
0
0
0
0
0
0
0
0
0
0
0
0
0
0
0
0
0
0
0
0
0
0
0
0
0
0
0
0
0
0
0
0
0
0
0
0
0
0
0
0
0
0
0
0
0
0
0
0
0
0
0
0
0
0
0
0
0
0
0
0
0
0
0
0
0
0
0
0
0
0
0
0
0
0
0
0
0
0
0
0
0
0
0
0
0
0
0
0
0
0
0
0
0
0
0
0
0
0
0
0
0
0
0
0
0
0
0
0
0
0
0
0
0
0
0
0
0
0
0
0
0
0
0
0
0
0
0
0
0
0
0
0
0
0
0
0
0
0
0
0
0
0
0
0
0
0
0
0
0
0
0
0
0
0
0
0
0
0
0
0
0
0
0
0
0
0
0
0
0
0
0
0
0
0
0
0
0
0
0
0
0
0
0
0
0
0
0
0
0
0
0
0
0
0
0
0
0
0
0
0
0
0
0
0
0
0
0
0
0
0
0
0
0
0
0
0
0
0
0
0
0
0
0
0
0
0
0
0
0
0
0
0
0
0
0
0
0
0
0
0
0
0
0
0
0
0
0
0
0
0
0
0
0
0
0
0
0
0
0
0
0
0
0
0
0
0
0
0
0
0
0
0
0
0
0
0
0
0
0
0
0
0
0
0
0
0
0
0
0
0
0
0
0
0
0
0
0
0
0
0
0
0
0
0
0
0
0
0
0
0
0
0
0
0
0
0
0
0
0
0
0
0
0
0
0
0
0
0
0
0
0
0
0
0
0
0
0
0
0
0
0
0
0
0
0
0
0
0
0
0
0
0
0
0
0
0
0
0
0
0
0
0
0
0
0
0
0
0
0
0
0
0
0
0
0
0
0
0
0
0
0
0
0
0
0
0
0
0
0
0
0
0
0
0
0
0
0
0
0
0
0
0
0
0
0
0
0
0
0
0
0
0
0
0
0
0
0
0
0
0
0
0
0
0
0
0
0
0
0
0
0
0
0
0
0
0
0
0
0
0
0
0
0
0
0
0
0
0
0
0
0
0
0
0
0
0
0
0
0
0
0
0
0
0
0
0
0
0
0
0
0
0
0
0
0
0
0
0
0
0
0
0
0
0
0
0
0
0
0
0
0
0
0
0
0
0
0
0
0
0
0
0
0
0
0
0
0
0
0
0
0
0
0
0
0
0
0
0
0
0
0
0
0
0
0
0
0
0
0
0
0
0
0
0
0
0
0
0
0
0
0
0
0
0
0
0
0
0
0
0
0
0
0
0
0
0
0
0
0
0
0
0
0
0
0
0
0
0
0
0
0
0
0
0
0
0
0
0
0
0
0
0
0
0
0
0
0
0
0
4.04452e-20
1.33778e-19
2.84783e-19
4.76139e-19
2.1339e-20
-6.87478e-19
-4.32701e-19
0
1.07262e-20
0
0
0
0
0
0
0
0
0
0
0
0
0
0
0
0
0
0
0
0
0
0
0
0
0
0
0
0
0
0
0
0
0
0
0
0
0
0
0
0
0
0
0
0
0
0
0
0
0
0
0
0
0
0
0
0
0
0
0
0
0
0
0
0
0
0
0
0
0
0
0
0
0
0
0
0
0
0
0
0
0
0
0
0
0
0
0
0
0
2.79191e-20
2.45824e-19
2.40674e-19
-3.84859e-18
-1.2156e-17
-2.41811e-17
-3.8063e-17
-3.13011e-18
4.84449e-17
2.99344e-17
-8.59465e-20
-7.68798e-19
-3.12671e-20
0
0
0
0
0
0
0
0
0
0
0
0
0
0
0
0
0
0
0
0
0
0
0
0
0
0
0
0
0
0
0
0
0
0
0
0
0
0
0
0
0
0
0
0
0
0
0
0
0
0
0
0
0
0
0
0
0
0
0
0
0
0
0
0
0
0
0
0
0
0
0
0
0
0
0
0
0
0
0
0
0
0
0
0
0
0
0
-1.78934e-19
-2.95134e-18
-2.41653e-17
-2.367e-17
3.1988e-16
9.67222e-16
1.79846e-15
2.66859e-15
3.11986e-16
-2.98947e-15
-1.81417e-15
3.04203e-18
4.82277e-17
2.12145e-18
-5.75599e-20
0
0
0
0
0
0
0
0
0
0
0
0
0
0
0
0
0
0
0
0
0
0
0
0
0
0
0
0
0
0
0
0
0
0
0
0
0
0
0
0
0
0
0
0
0
0
0
0
0
0
0
0
0
0
0
0
0
0
0
0
0
0
0
0
0
0
0
0
0
0
0
0
0
0
0
0
0
0
0
0
0
0
0
0
1.54136e-20
6.70732e-19
1.7579e-17
2.70935e-16
2.07234e-15
2.03634e-15
-2.3164e-14
-6.72283e-14
-1.16888e-13
-1.63613e-13
-2.44077e-14
1.61125e-13
9.60309e-14
-1.53874e-17
-2.66958e-15
-1.26589e-16
3.74113e-18
5.33383e-20
0
0
0
0
0
0
0
0
0
0
0
0
0
0
0
0
0
0
0
0
0
0
0
0
0
0
0
0
0
0
0
0
0
0
0
0
0
0
0
0
0
0
0
0
0
0
0
0
0
0
0
0
0
0
0
0
0
0
0
0
0
0
0
0
0
0
0
0
0
0
0
0
0
0
0
0
0
0
0
0
0
0
0
-1.23649e-18
-5.89536e-17
-1.47621e-15
-2.15879e-14
-1.54048e-13
-1.52418e-13
1.45478e-12
4.06373e-12
6.60727e-12
8.73515e-12
1.56137e-12
-7.5418e-12
-4.4216e-12
-6.04498e-15
1.27858e-13
6.60059e-15
-2.13922e-16
-3.28156e-18
0
0
0
0
0
0
0
0
0
0
0
0
0
0
0
0
0
0
0
0
0
0
0
0
0
0
0
0
0
0
0
0
0
0
0
0
0
0
0
0
0
0
0
0
0
0
0
0
0
0
0
0
0
0
0
0
0
0
0
0
0
0
0
0
0
0
0
0
0
0
0
0
0
0
0
0
0
0
0
0
0
-1.1361e-19
-1.11224e-18
7.72166e-17
4.16756e-15
1.07585e-13
1.47101e-12
9.8749e-12
9.76084e-12
-7.86457e-11
-2.12122e-10
-3.22723e-10
-4.02746e-10
-8.34399e-11
3.04631e-10
1.75518e-10
6.58483e-13
-5.46195e-12
-3.03634e-13
1.06947e-14
1.76365e-16
-2.52077e-19
0
0
0
0
0
0
0
0
0
0
0
0
0
0
0
0
0
0
0
0
0
0
0
0
0
0
0
0
0
0
0
0
0
0
0
0
0
0
0
0
0
0
0
0
0
0
0
0
0
0
0
0
0
0
0
0
0
0
0
0
0
0
0
0
0
0
0
0
0
0
0
0
0
0
0
0
0
0
0
5.43904e-19
1.37688e-17
2.73354e-16
-1.69616e-15
-2.58093e-13
-6.40077e-12
-8.65194e-11
-5.36275e-10
-5.35375e-10
3.62532e-09
9.46665e-09
1.34697e-08
1.59147e-08
3.69376e-09
-1.04657e-08
-5.96548e-09
-3.35052e-11
1.93006e-10
1.19767e-11
-4.71914e-13
-8.36639e-15
1.49267e-17
0
0
0
0
0
0
0
0
0
0
0
0
0
0
0
0
0
0
0
0
0
0
0
0
0
0
0
0
0
0
0
0
0
0
0
0
0
0
0
0
0
0
0
0
0
0
0
0
0
0
0
0
0
0
0
0
0
0
0
0
0
0
0
0
0
0
0
0
0
0
0
0
0
0
0
0
0
0
-1.64897e-18
-3.66352e-17
-1.98215e-15
-3.14159e-14
-1.48174e-13
1.0012e-11
3.43681e-10
4.14094e-09
2.46378e-08
2.38816e-08
-1.40039e-07
-3.55964e-07
-4.7469e-07
-5.28e-07
-1.37866e-07
3.0322e-07
1.69575e-07
1.76434e-09
-6.40328e-09
-4.22585e-10
1.78771e-11
3.41332e-13
-7.77979e-16
0
0
0
0
0
0
0
0
0
0
0
0
0
0
0
0
0
0
0
0
0
0
0
0
0
0
0
0
0
0
0
0
0
0
0
0
0
0
0
0
0
0
0
0
0
0
0
0
0
0
0
0
0
0
0
0
0
0
0
0
0
0
0
0
0
0
0
0
0
0
0
0
0
0
0
0
-3.73446e-20
4.19355e-18
2.30798e-17
6.74788e-15
1.11021e-13
3.63617e-12
3.05796e-11
-4.03245e-10
-1.24084e-08
-1.75888e-07
-9.02881e-07
-9.10201e-07
4.47587e-06
1.10578e-05
1.37772e-05
1.46249e-05
4.08228e-06
-7.10734e-06
-4.02815e-06
-4.90154e-08
1.50521e-07
1.19721e-08
-6.05885e-10
-1.24949e-11
3.53727e-14
0
0
0
0
0
0
0
0
0
0
0
0
0
0
0
0
0
0
0
0
0
0
0
0
0
0
0
0
0
0
0
0
0
0
0
0
0
0
0
0
0
0
0
0
0
0
0
0
0
0
0
0
0
0
0
0
0
0
0
0
0
0
0
0
0
0
0
0
0
0
0
0
0
0
0
1.57816e-19
-9.91717e-18
1.61769e-16
-1.67464e-14
-1.08224e-13
-1.49148e-11
-1.69501e-10
-2.94636e-09
-4.90501e-09
5.36788e-07
4.96497e-06
2.77174e-05
2.35622e-05
-0.000112209
-0.00027525
-0.00032332
-0.000317297
-0.000104105
0.000135943
7.37226e-05
1.89108e-06
-4.12969e-06
-3.27558e-07
1.65495e-08
3.69497e-10
-1.42363e-12
0
0
0
0
0
0
0
0
0
0
0
0
0
0
0
0
0
0
0
0
0
0
0
0
0
0
0
0
0
0
0
0
0
0
0
0
0
0
0
0
0
0
0
0
0
0
0
0
0
0
0
0
0
0
0
0
0
0
0
0
0
0
0
0
0
0
0
0
0
0
0
0
0
0
-4.10414e-19
2.12505e-17
-6.8467e-16
3.46471e-14
-3.55188e-13
3.53344e-11
2.49373e-10
1.70043e-08
1.18377e-07
5.00236e-07
-5.65967e-06
-0.000166676
-0.00054433
-0.000608034
0.00226615
0.00526865
0.0057576
0.00562109
0.00176639
-0.00178678
-0.00112587
-2.82548e-05
4.66536e-05
5.70558e-06
-4.35122e-07
-1.06464e-08
4.8781e-11
0
0
0
0
0
0
0
0
0
0
0
0
0
0
0
0
0
0
0
0
0
0
0
0
0
0
0
0
0
0
0
0
0
0
0
0
0
0
0
0
0
0
0
0
0
0
0
0
0
0
0
0
0
0
0
0
0
0
0
0
0
0
0
0
0
0
0
0
0
0
0
0
-1.54946e-20
8.24698e-19
-3.89784e-17
1.55876e-15
-6.283e-14
1.56164e-12
-6.1077e-11
4.10802e-10
-3.82971e-08
-2.80363e-07
-9.41049e-06
-2.36655e-05
0.000331956
0.000982253
0.0105515
0.00239355
-0.0275698
-0.0723405
-0.0761927
-0.0618929
-0.0314333
0.0197576
0.00931863
0.000799667
-0.00135501
-0.000134688
7.40735e-06
1.94819e-07
-1.51619e-09
0
0
0
0
0
0
0
0
0
0
0
0
0
0
0
0
0
0
0
0
0
0
0
0
0
0
0
0
0
0
0
0
0
0
0
0
0
0
0
0
0
0
0
0
0
0
0
0
0
0
0
0
0
0
0
0
0
0
0
0
0
0
0
0
0
0
0
0
0
0
0
2.10174e-20
-1.16159e-18
5.68064e-17
-2.38183e-15
9.11602e-14
-2.94215e-12
8.64377e-11
-1.81083e-09
4.77932e-08
-2.56282e-07
1.88798e-05
0.000164398
0.00200148
-0.0020448
-0.0730684
-0.0236423
-0.116297
0.373419
0.652163
0.654405
0.653907
0.170249
-0.0408388
-0.10083
-0.00798863
0.0020091
0.00082933
-0.000166424
-5.07263e-06
3.67368e-08
0
0
0
0
0
0
0
0
0
0
0
0
0
0
0
0
0
0
0
0
0
0
0
0
0
0
0
0
0
0
0
0
0
0
0
0
0
0
0
0
0
0
0
0
0
0
0
0
0
0
0
0
0
0
0
0
0
0
0
0
0
0
0
0
0
0
0
0
0
0
-1.92969e-20
1.11792e-18
-5.64567e-17
2.5237e-15
-9.6919e-14
3.37951e-12
-9.6616e-11
2.64924e-09
-5.13158e-08
1.1261e-06
-1.41818e-05
0.000178403
-0.00415645
-0.030556
-0.121147
0.140141
0.941725
1.12668
1.1233
1.00051
0.999084
1.06019
1.06097
1.17404
0.695586
0.0655947
-0.14772
-0.0267462
0.00108789
2.78503e-05
-9.09873e-07
0
0
0
0
0
0
0
0
0
0
0
0
0
0
0
0
0
0
0
0
0
0
0
0
0
0
0
0
0
0
0
0
0
0
0
0
0
0
0
0
0
0
0
0
0
0
0
0
0
0
0
0
0
0
0
0
0
0
0
0
0
0
0
0
0
0
0
0
0
0
-3.80727e-19
2.00629e-17
-9.46289e-16
3.7628e-14
-1.4154e-12
3.9745e-11
-1.16591e-09
2.14536e-08
-6.33057e-07
5.72255e-06
-0.000211612
-0.000310585
-0.0484358
0.133268
0.63981
1.01119
1.13026
1
1
1
1.00001
0.999982
1.00185
1.01053
1.12669
0.963376
0.608343
-0.024018
-0.030809
-0.00132396
1.26982e-05
0
0
0
0
0
0
0
0
0
0
0
0
0
0
0
0
0
0
0
0
0
0
0
0
0
0
0
0
0
0
0
0
0
0
0
0
0
0
0
0
0
0
0
0
0
0
0
0
0
0
0
0
0
0
0
0
0
0
0
0
0
0
0
0
0
0
0
0
1.04053e-20
-6.53347e-19
3.5989e-17
-1.73665e-15
7.37728e-14
-2.72106e-12
8.88403e-11
-2.42942e-09
6.16351e-08
-1.13959e-06
2.20527e-05
-0.000258684
0.00290415
-0.0373718
0.102699
0.775371
1.13242
1
1
1
1
1
1
1
1.00001
0.999951
1.00193
1.00443
1.12811
0.644997
-0.00469618
-0.00604091
-0.000298876
3.01287e-20
2.44118e-20
1.78784e-20
1.25341e-20
0
0
0
0
0
0
0
0
0
0
0
0
0
0
0
0
0
0
0
0
0
0
0
0
0
0
0
0
0
0
0
0
0
0
0
0
0
0
0
0
0
0
0
0
0
0
0
0
0
0
0
0
0
0
0
0
0
0
0
0
0
0
0
0
1.77454e-19
-1.01724e-17
5.09155e-16
-2.25361e-14
8.56108e-13
-2.93674e-11
8.07562e-10
-2.20248e-08
3.72406e-07
-9.31825e-06
5.28587e-05
-0.00211487
-0.00429953
-0.147597
0.696196
1.13384
1
1
1
1
1
1
1
1
1
1.00001
0.999932
1.0021
1.00063
1.15217
0.390084
-0.123802
0.00102042
2.20767e-19
1.57745e-19
1.15653e-19
8.11942e-20
5.45613e-20
3.50777e-20
2.1563e-20
1.2665e-20
0
0
0
0
0
0
0
0
0
0
0
0
0
0
0
0
0
0
0
0
0
0
0
0
0
0
0
0
0
0
0
0
0
0
0
0
0
0
0
0
0
0
0
0
0
0
0
0
0
0
0
0
0
0
0
0
0
0
0
0
-8.5286e-20
5.56931e-18
-3.15238e-16
1.55589e-14
-6.64755e-13
2.46777e-11
-7.88775e-10
2.12489e-08
-5.34289e-07
8.66047e-06
-0.000180515
0.0010757
-0.0287525
0.14312
1.0325
1
1
1
1
1
1
1
1
1
1
1
0.999992
1.00011
0.998512
1.01469
0.885582
0.00725259
-0.0480398
1.12979e-18
9.7911e-19
7.1858e-19
5.05123e-19
3.39977e-19
2.19004e-19
1.34954e-19
7.95034e-20
4.47421e-20
2.40303e-20
1.2302e-20
0
0
0
0
0
0
0
0
0
0
0
0
0
0
0
0
0
0
0
0
0
0
0
0
0
0
0
0
0
0
0
0
0
0
0
0
0
0
0
0
0
0
0
0
0
0
0
0
0
0
0
0
0
0
0
0
1.22338e-19
-7.58387e-18
4.1199e-16
-1.95935e-14
8.13684e-13
-2.93406e-11
9.13097e-10
-2.4168e-08
5.40315e-07
-9.75757e-06
0.000145485
-0.0014763
0.0135172
-0.0271136
0.898967
1.13591
1
1
1
1
1
1
1
1
1
1
1
1.00001
0.999962
1.0016
1.00445
1.14162
0.750957
-0.0708255
7.25849e-18
5.83758e-18
4.28828e-18
3.01799e-18
2.03426e-18
1.31278e-18
8.10747e-19
4.78917e-19
2.70416e-19
1.45833e-19
7.50385e-20
3.67916e-20
1.71593e-20
0
0
0
0
0
0
0
0
0
0
0
0
0
0
0
0
0
0
0
0
0
0
0
0
0
0
0
0
0
0
0
0
0
0
0
0
0
0
0
0
0
0
0
0
0
0
0
0
0
0
0
0
0
0
1.88559e-19
-1.18281e-17
6.50124e-16
-3.12807e-14
1.31323e-12
-4.78792e-11
1.50171e-09
-4.01806e-08
8.94532e-07
-1.635e-05
0.000230643
-0.00251198
0.0149223
-0.0658895
1.17649
1
1
1
1
1
1
1
1
1
1
1
1
0.999999
1.00002
0.999765
1.00238
0.979602
1.02356
-0.19744
4.29526e-17
3.34317e-17
2.45803e-17
1.73179e-17
1.16887e-17
7.55559e-18
4.67559e-18
2.76869e-18
1.56799e-18
8.48689e-19
4.38657e-19
2.16276e-19
1.01577e-19
4.53618e-20
1.92135e-20
0
0
0
0
0
0
0
0
0
0
0
0
0
0
0
0
0
0
0
0
0
0
0
0
0
0
0
0
0
0
0
0
0
0
0
0
0
0
0
0
0
0
0
0
0
0
0
0
0
0
0
0
-4.26133e-20
3.19534e-18
-2.07709e-16
1.1732e-14
-5.74913e-13
2.43971e-11
-8.89306e-10
2.77433e-08
-7.24694e-07
1.58699e-05
-0.000275014
0.00393134
-0.0386572
0.347543
1.09903
1
1
1
1
1
1
1
1
1
1
1
1
1
1.00001
0.999868
1.00174
0.987212
1.13162
0.121044
2.39474e-16
1.83913e-16
1.35329e-16
9.54407e-17
6.44977e-17
4.17543e-17
2.5886e-17
1.53627e-17
8.72374e-18
4.73723e-18
2.45825e-18
1.21795e-18
5.75494e-19
2.58961e-19
1.10757e-19
4.49053e-20
1.71941e-20
0
0
0
0
0
0
0
0
0
0
0
0
0
0
0
0
0
0
0
0
0
0
0
0
0
0
0
0
0
0
0
0
0
0
0
0
0
0
0
0
0
0
0
0
0
0
0
0
0
0
-1.76799e-19
1.22986e-17
-7.4993e-16
4.00927e-14
-1.87441e-12
7.62995e-11
-2.68491e-09
8.09392e-08
-2.0588e-06
4.34107e-05
-0.00074015
0.0098472
-0.09802
0.714787
1.00001
1
1
1
1
1
1
1
1
1
1
1
1
1
1
0.999957
1.00074
0.990204
1.09816
0.285918
1.26417e-15
9.71833e-16
7.15638e-16
5.05174e-16
3.4178e-16
2.21568e-16
1.37594e-16
8.18231e-17
4.65763e-17
2.53663e-17
1.32097e-17
6.57296e-18
3.1222e-18
1.41413e-18
6.09799e-19
2.49847e-19
9.6993e-20
3.55345e-20
1.22123e-20
0
0
0
0
0
0
0
0
0
0
0
0
0
0
0
0
0
0
0
0
0
0
0
0
0
0
0
0
0
0
0
0
0
0
0
0
0
0
0
0
0
0
0
0
0
0
0
0
-9.77849e-20
7.17991e-18
-4.58716e-16
2.57005e-14
-1.25922e-12
5.37116e-11
-1.98119e-09
6.25681e-08
-1.66947e-06
3.69129e-05
-0.00065926
0.0091604
-0.0947516
0.705783
0.999885
1
1
1
1
1
1
1
1
1
1
1
1
1
1
0.999962
1.00066
0.990241
1.09346
0.289966
6.41885e-15
4.93287e-15
3.63498e-15
2.56817e-15
1.73935e-15
1.12901e-15
7.02193e-16
4.18342e-16
2.38657e-16
1.30319e-16
6.80795e-17
3.40044e-17
1.62271e-17
7.39132e-18
3.20965e-18
1.32668e-18
5.20871e-19
1.9368e-19
6.79218e-20
2.23223e-20
0
0
0
0
0
0
0
0
0
0
0
0
0
0
0
0
0
0
0
0
0
0
0
0
0
0
0
0
0
0
0
0
0
0
0
0
0
0
0
0
0
0
0
0
0
0
0
-4.8268e-20
4.01204e-18
-2.69037e-16
1.58674e-14
-8.18071e-13
3.6712e-11
-1.42383e-09
4.72803e-08
-1.32377e-06
3.0726e-05
-0.000572539
0.00836305
-0.0877603
0.696378
1.01219
0.999998
1
1
1
1
1
1
1
1
1
1
1
1
1
0.999961
1.00079
0.992226
1.13788
0.310572
3.12819e-14
2.40512e-14
1.77344e-14
1.25396e-14
8.50097e-15
5.52447e-15
3.44079e-15
2.05334e-15
1.17373e-15
6.42442e-16
3.36566e-16
1.68678e-16
8.0822e-17
3.69956e-17
1.61622e-17
6.73047e-18
2.66735e-18
1.00383e-18
3.57664e-19
1.20123e-19
3.77758e-20
1.10048e-20
0
0
0
0
0
0
0
0
0
0
0
0
0
0
0
0
0
0
0
0
0
0
0
0
0
0
0
0
0
0
0
0
0
0
0
0
0
0
0
0
0
0
0
0
0
0
1.23335e-18
-8.01375e-17
4.82764e-15
-2.53284e-13
1.15491e-11
-4.55305e-10
1.53303e-08
-4.38263e-07
1.0319e-05
-0.000200978
0.00295202
-0.0362798
0.272203
1.08904
1.00017
1
1
1
1
1
1
1
1
1
1
1
1
1
0.999934
1.00115
0.985894
1.0467
-0.0192094
1.46442e-13
1.12643e-13
8.31079e-14
5.8807e-14
3.99028e-14
2.59594e-14
1.6189e-14
9.67582e-15
5.54096e-15
3.03935e-15
1.59633e-15
8.02457e-16
3.85884e-16
1.774e-16
7.79062e-17
3.26502e-17
1.30421e-17
4.9572e-18
1.7889e-18
6.11007e-19
1.96634e-19
5.92214e-20
1.63861e-20
0
0
0
0
0
0
0
0
0
0
0
0
0
0
0
0
0
0
0
0
0
0
0
0
0
0
0
0
0
0
0
0
0
0
0
0
0
0
0
0
0
0
0
2.78962e-20
9.85796e-20
-7.47026e-20
2.94163e-17
-1.87918e-15
1.08475e-13
-5.42851e-12
2.33794e-10
-8.58699e-09
2.63194e-07
-6.58542e-06
0.000131043
-0.0019199
0.0197531
-0.091171
1.18505
1.00042
0.999997
1
1
1
1
1
1
1
1
1
1
1
0.999997
0.999891
0.998523
1.00346
1.08012
-0.137892
6.58525e-13
5.06757e-13
3.74092e-13
2.64888e-13
1.79885e-13
1.17144e-13
7.31407e-14
4.37758e-14
2.51102e-14
1.38004e-14
7.26487e-15
3.66187e-15
1.76656e-15
8.1523e-16
3.59649e-16
1.51559e-16
6.09477e-17
2.33587e-17
8.5178e-18
2.94855e-18
9.65871e-19
2.98056e-19
8.55909e-20
2.81843e-20
-3.88731e-20
0
0
0
0
0
0
0
0
0
0
0
0
0
0
0
0
0
0
0
0
0
0
0
0
0
0
0
0
0
0
0
0
0
0
0
0
0
0
0
1.00222e-20
3.68706e-20
1.2916e-19
4.33143e-19
1.24142e-18
1.4749e-17
-7.05948e-16
4.26854e-14
-2.19858e-12
9.76968e-11
-3.699e-09
1.17694e-07
-3.07286e-06
6.38144e-05
-0.000999684
0.0108061
-0.0708499
0.805551
1.14312
1.00023
0.999995
1
1
1
1
1
1
1
1
1
1
0.999991
1.00059
1.00703
1.11379
0.552667
-0.116788
2.84461e-12
2.18991e-12
1.61744e-12
1.146e-12
7.78849e-13
5.07661e-13
3.17313e-13
1.90161e-13
1.09242e-13
6.01451e-14
3.17276e-14
1.60313e-14
7.75598e-15
3.59132e-15
1.59071e-15
6.73552e-16
2.72426e-16
1.05145e-16
3.8675e-17
1.35344e-17
4.496e-18
1.41329e-18
4.16835e-19
1.35952e-19
-1.45361e-19
0
0
0
0
0
0
0
0
0
0
0
0
0
0
0
0
0
0
0
0
0
0
0
0
0
0
0
0
0
0
0
0
0
0
0
0
0
0
1.17705e-20
4.49712e-20
1.63706e-19
5.6856e-19
1.88595e-18
5.97778e-18
1.82685e-17
4.38347e-17
6.50174e-16
-2.47723e-14
1.12546e-12
-4.34386e-11
1.63034e-09
-5.7004e-08
1.49443e-06
-3.73105e-05
0.000592765
-0.00936261
0.0851048
0.992382
1.00019
1.00032
1
0.999993
1
1
1
1
1
1
0.999998
0.999993
1.00008
0.998067
1.01875
0.838886
-0.0207599
1.4707e-11
1.18037e-11
9.09045e-12
6.71728e-12
4.76218e-12
3.23877e-12
2.11285e-12
1.32196e-12
7.93163e-13
4.5628e-13
2.51617e-13
1.32982e-13
6.73406e-14
3.26631e-14
1.51698e-14
6.74298e-15
2.86714e-15
1.16544e-15
4.52516e-16
1.67665e-16
5.92051e-17
1.98906e-17
6.34366e-18
1.90891e-18
6.18241e-19
-5.17063e-19
0
0
0
0
0
0
0
0
0
0
0
0
0
0
0
0
0
0
0
0
0
0
0
0
0
0
0
0
0
0
0
0
0
0
0
0
0
1.27764e-20
5.06896e-20
1.91704e-19
6.91966e-19
2.38617e-18
7.86712e-18
2.48142e-17
7.49005e-17
2.1789e-16
4.94844e-16
8.77265e-15
-4.34505e-13
2.17758e-11
-1.03181e-09
3.25385e-08
-1.32308e-06
1.6972e-05
-0.00086162
-0.00105111
-0.158319
0.596784
1.14363
0.999728
0.999806
1.00042
0.999944
0.999965
0.999989
0.999986
0.999978
0.999927
0.999851
1.00103
0.996949
1.0126
1.13161
0.380577
-0.130924
5.86065e-11
4.70495e-11
3.62472e-11
2.67963e-11
1.90074e-11
1.29355e-11
8.44524e-12
5.28885e-12
3.1767e-12
1.82975e-12
1.01051e-12
5.34975e-13
2.71443e-13
1.31965e-13
6.14533e-14
2.74018e-14
1.16943e-14
4.77424e-15
1.86334e-15
6.94695e-16
2.47161e-16
8.381e-17
2.70413e-17
8.26484e-18
2.66246e-18
-1.74471e-18
0
0
0
0
0
0
0
0
0
0
0
0
0
0
0
0
0
0
0
0
0
0
0
0
0
0
0
0
0
0
0
0
0
0
0
0
1.28137e-20
5.27866e-20
2.07389e-19
7.77949e-19
2.78873e-18
9.56009e-18
3.13594e-17
9.84758e-17
2.96156e-16
8.53291e-16
2.3542e-15
6.3565e-15
7.76829e-15
5.00223e-13
-2.54567e-11
1.15046e-09
-4.9623e-08
1.36467e-06
-4.89984e-05
0.000487807
-0.0203766
-0.00201689
0.661629
1.15574
1.0025
1.00123
1.00115
1.00076
1.00027
1.00033
1.00048
1.00122
0.999637
1.00774
1.02015
1.14117
0.504212
-0.0927422
2.68144e-10
2.24346e-10
1.8015e-10
1.38834e-10
1.02677e-10
7.28688e-11
4.9621e-11
3.24197e-11
2.03202e-11
1.22173e-11
7.04521e-12
3.89604e-12
2.06582e-12
1.05006e-12
5.11562e-13
2.38797e-13
1.06777e-13
4.57177e-14
1.87356e-14
7.34519e-15
2.75307e-15
9.85764e-16
3.36856e-16
1.09723e-16
3.39531e-17
1.08919e-17
-5.56251e-18
0
0
0
0
0
0
0
0
0
0
0
0
0
0
0
0
0
0
0
0
0
0
0
0
0
0
0
0
0
0
0
0
0
0
0
1.18698e-20
5.07719e-20
2.07215e-19
8.07765e-19
3.00998e-18
1.07286e-17
3.65979e-17
1.19535e-16
3.73953e-16
1.12089e-15
3.21991e-15
8.86674e-15
2.34102e-14
5.93042e-14
1.40367e-13
5.89254e-13
-1.47654e-11
7.60234e-10
-3.53368e-08
1.06493e-06
-4.08554e-05
0.000466315
-0.019868
0.00441826
0.467424
0.942477
1.14577
0.982671
0.989469
0.994768
0.994011
0.993628
0.986261
0.9905
1.12774
0.847316
0.347475
-0.0904688
1.13087e-09
9.85869e-10
8.24973e-10
6.62607e-10
5.10796e-10
3.77913e-10
2.68327e-10
1.82824e-10
1.19527e-10
7.49766e-11
4.51201e-11
2.60466e-11
1.44216e-11
7.65768e-12
3.89878e-12
1.90294e-12
8.90216e-13
3.99049e-13
1.71352e-13
7.0458e-14
2.77312e-14
1.0442e-14
3.7593e-15
1.29303e-15
4.24501e-16
1.32686e-16
4.24214e-17
-1.66583e-17
0
0
0
0
0
0
0
0
0
0
0
0
0
0
0
0
0
0
0
0
0
0
0
0
0
0
0
0
0
0
0
0
0
0
1.01516e-20
4.50888e-20
1.91168e-19
7.74426e-19
2.99973e-18
1.11169e-17
3.94365e-17
1.33969e-16
4.35964e-16
1.35946e-15
4.06311e-15
1.16419e-14
3.19845e-14
8.42718e-14
2.12963e-13
5.16298e-13
1.19984e-12
2.60115e-12
1.00604e-11
-2.42984e-10
9.93191e-09
-4.982e-07
7.12461e-06
-0.000492798
-0.00266526
-0.140962
0.0189696
0.770265
1.10964
1.11956
1.07224
1.07596
1.1023
1.07027
1.0873
0.607001
-0.0215549
-0.13517
4.39728e-09
3.99372e-09
3.48196e-09
2.91413e-09
2.34109e-09
1.80523e-09
1.33608e-09
9.49054e-10
6.46974e-10
4.23242e-10
2.65683e-10
1.6002e-10
9.24655e-11
5.12544e-11
2.72505e-11
1.38947e-11
6.79338e-12
3.18421e-12
1.43056e-12
6.15865e-13
2.53991e-13
1.00312e-13
3.79237e-14
1.37175e-14
4.74449e-15
1.56795e-15
4.9417e-16
1.57556e-16
-4.6422e-17
0
0
0
0
0
0
0
0
0
0
0
0
0
0
0
0
0
0
0
0
0
0
0
0
0
0
0
0
0
0
0
0
0
0
3.69564e-20
1.62787e-19
6.85347e-19
2.75965e-18
1.06338e-17
3.92294e-17
1.38608e-16
4.69204e-16
1.52211e-15
4.73313e-15
1.41109e-14
4.03405e-14
1.10606e-13
2.90886e-13
7.33877e-13
1.77651e-12
4.11946e-12
9.16792e-12
1.9619e-11
4.03977e-11
7.20724e-11
5.7179e-10
-2.32331e-08
7.99459e-07
-3.81764e-05
0.000391642
-0.0260664
-0.0788111
-0.193231
0.118914
0.348613
0.337967
0.335119
0.0321488
-0.164754
-0.107157
1.60009e-08
1.57677e-08
1.49173e-08
1.35487e-08
1.18135e-08
9.88841e-09
7.9455e-09
6.12842e-09
4.53723e-09
3.22423e-09
2.19904e-09
1.43941e-09
9.04169e-10
5.45003e-10
3.15205e-10
1.74901e-10
9.31e-11
4.75347e-11
2.32764e-11
1.09294e-11
4.92011e-12
2.12303e-12
8.77884e-13
3.47771e-13
1.3194e-13
4.79201e-14
1.66535e-14
5.53464e-15
1.75647e-15
5.58717e-16
-1.18422e-16
0
0
0
0
0
0
0
0
0
0
0
0
0
0
0
0
0
0
0
0
0
0
0
0
0
0
0
0
0
0
0
0
0
2.7944e-20
1.27898e-19
5.59664e-19
2.34287e-18
9.38736e-18
3.60162e-17
1.32363e-16
4.66097e-16
1.57305e-15
5.08931e-15
1.57874e-14
4.69645e-14
1.33999e-13
3.66743e-13
9.62946e-13
2.42584e-12
5.86428e-12
1.35818e-11
3.01925e-11
6.45359e-11
1.32399e-10
2.60721e-10
4.92835e-10
8.94299e-10
1.55789e-09
2.60543e-09
4.18335e-09
6.44881e-09
9.54455e-09
1.35631e-08
1.85051e-08
2.42416e-08
3.04907e-08
3.68224e-08
4.26967e-08
4.75348e-08
5.08114e-08
5.2148e-08
5.1385e-08
4.86127e-08
4.4154e-08
3.85023e-08
3.22322e-08
2.59039e-08
1.99847e-08
1.48004e-08
1.05213e-08
7.17914e-09
4.70169e-09
2.95522e-09
1.78258e-09
1.03182e-09
5.73079e-10
3.0538e-10
1.56112e-10
7.65512e-11
3.60019e-11
1.62364e-11
7.02055e-12
2.90989e-12
1.15586e-12
4.39881e-13
1.60334e-13
5.59512e-14
1.86848e-14
5.96456e-15
1.89354e-15
-2.67615e-16
0
0
0
0
0
0
0
0
0
0
0
0
0
0
0
0
0
0
0
0
0
0
0
0
0
0
0
0
0
0
0
0
1.94823e-20
9.26723e-20
4.2156e-19
1.83491e-18
7.64573e-18
3.05101e-17
1.16636e-16
4.27274e-16
1.50028e-15
5.05034e-15
1.63016e-14
5.0463e-14
1.49833e-13
4.26765e-13
1.16618e-12
3.05762e-12
7.69261e-12
1.85737e-11
4.29707e-11
9.54298e-11
2.03758e-10
4.17609e-10
8.2163e-10
1.55186e-09
2.81395e-09
4.89871e-09
8.18771e-09
1.31392e-08
2.02445e-08
2.99492e-08
4.25412e-08
5.80209e-08
7.59822e-08
9.55417e-08
1.15353e-07
1.33727e-07
1.48854e-07
1.59092e-07
1.63261e-07
1.60863e-07
1.52182e-07
1.38228e-07
1.20543e-07
1.00925e-07
8.11237e-08
6.26007e-08
4.63744e-08
3.29783e-08
2.25118e-08
1.47504e-08
9.27661e-09
5.59935e-09
3.24356e-09
1.80306e-09
9.61761e-10
4.92213e-10
2.4167e-10
1.13822e-10
5.14165e-11
2.22736e-11
9.25154e-12
3.68371e-12
1.40575e-12
5.13998e-13
1.80016e-13
6.03669e-14
1.93668e-14
6.13783e-15
-4.93097e-16
0
0
0
0
0
0
0
0
0
0
0
0
0
0
0
0
0
0
0
0
0
0
0
0
0
0
0
0
0
0
0
1.25164e-20
6.18936e-20
2.92753e-19
1.32518e-18
5.74324e-18
2.38402e-17
9.48127e-17
3.61364e-16
1.32021e-15
4.62437e-15
1.55326e-14
5.00366e-14
1.54611e-13
4.58308e-13
1.30341e-12
3.55679e-12
9.3137e-12
2.34049e-11
5.64498e-11
1.30474e-10
2.89505e-10
6.17539e-10
1.26456e-09
2.48599e-09
4.69201e-09
8.50227e-09
1.47924e-08
2.47103e-08
3.96335e-08
6.10382e-08
9.02606e-08
1.28162e-07
1.74737e-07
2.2876e-07
2.8757e-07
3.47119e-07
4.02329e-07
4.47766e-07
4.78503e-07
4.90997e-07
4.83759e-07
4.57644e-07
4.15691e-07
3.62533e-07
3.03565e-07
2.44045e-07
1.88362e-07
1.39575e-07
9.92881e-08
6.78028e-08
4.44468e-08
2.79676e-08
1.68915e-08
9.7917e-09
5.44746e-09
2.90834e-09
1.48997e-09
7.3241e-10
3.45405e-10
1.56261e-10
6.78061e-11
2.82173e-11
1.12595e-11
4.30725e-12
1.57928e-12
5.5486e-13
1.86743e-13
6.01683e-14
1.90404e-14
-5.16883e-16
0
0
0
0
0
0
0
0
0
0
0
0
0
0
0
0
0
0
0
0
0
0
0
0
0
0
0
0
0
0
0
3.8078e-20
1.87332e-19
8.82097e-19
3.97715e-18
1.71764e-17
7.10763e-17
2.8188e-16
1.07163e-15
3.9062e-15
1.36541e-14
4.5776e-14
1.47209e-13
4.54156e-13
1.3443e-12
3.81808e-12
1.04062e-11
2.72188e-11
6.83288e-11
1.64642e-10
3.80225e-10
8.4302e-10
1.79669e-09
3.67628e-09
7.22198e-09
1.36217e-08
2.46687e-08
4.28953e-08
7.16192e-08
1.14819e-07
1.76754e-07
2.61275e-07
3.70856e-07
5.05468e-07
6.61554e-07
8.31421e-07
1.00337e-06
1.16274e-06
1.29385e-06
1.3825e-06
1.41848e-06
1.3975e-06
1.32204e-06
1.20087e-06
1.04737e-06
8.77098e-07
7.05231e-07
5.44427e-07
4.03516e-07
2.87132e-07
1.9615e-07
1.28636e-07
8.09825e-08
4.89386e-08
2.83871e-08
1.58044e-08
8.44483e-09
4.33046e-09
2.13094e-09
1.00616e-09
4.55801e-10
1.98085e-10
8.25735e-11
3.30128e-11
1.26563e-11
4.65191e-12
1.63895e-12
5.53358e-13
1.78955e-13
5.65552e-14
1.11041e-15
0
0
0
0
0
0
0
0
0
0
0
0
0
0
0
0
0
0
0
0
0
0
0
0
0
0
0
0
0
0
2.15627e-20
1.10382e-19
5.40859e-19
2.53769e-18
1.14054e-17
4.91171e-17
2.02727e-16
8.02125e-16
3.04305e-15
1.10709e-14
3.86305e-14
1.29302e-13
4.15205e-13
1.27921e-12
3.78172e-12
1.07284e-11
2.92092e-11
7.63249e-11
1.91427e-10
4.60861e-10
1.06354e-09
2.35644e-09
5.01835e-09
1.02611e-08
2.01447e-08
3.79735e-08
6.8732e-08
1.19455e-07
1.99353e-07
3.19465e-07
4.91596e-07
7.26412e-07
1.03074e-06
1.40447e-06
1.83767e-06
2.30899e-06
2.78595e-06
3.2279e-06
3.59137e-06
3.83701e-06
3.93654e-06
3.87812e-06
3.66866e-06
3.33248e-06
2.90668e-06
2.43438e-06
1.95763e-06
1.51154e-06
1.12057e-06
7.97592e-07
5.45045e-07
3.57584e-07
2.25218e-07
1.36173e-07
7.90349e-08
4.40321e-08
2.3546e-08
1.20847e-08
5.95244e-09
2.81361e-09
1.27616e-09
5.55365e-10
2.31866e-10
9.28604e-11
3.56696e-11
1.31394e-11
4.6407e-12
1.57121e-12
5.09775e-13
1.60913e-13
9.83733e-15
0
0
0
0
0
0
0
0
0
0
0
0
0
0
0
0
0
0
0
0
0
0
0
0
0
0
0
0
0
1.12285e-20
5.9842e-20
3.05257e-19
1.49102e-18
6.97608e-18
3.12738e-17
1.34369e-16
5.53438e-16
2.18559e-15
8.27706e-15
3.00644e-14
1.04751e-13
3.50139e-13
1.12292e-12
3.45558e-12
1.02046e-11
2.89206e-11
7.86654e-11
2.05378e-10
5.14683e-10
1.23816e-09
2.85552e-09
6.3231e-09
1.34569e-08
2.74983e-08
5.39543e-08
1.01652e-07
1.83899e-07
3.19468e-07
5.32923e-07
8.53681e-07
1.31318e-06
1.9398e-06
2.75166e-06
3.74833e-06
4.90331e-06
6.15956e-06
7.4305e-06
8.60784e-06
9.57584e-06
1.02297e-05
1.04943e-05
1.0338e-05
9.77955e-06
8.88358e-06
7.74891e-06
6.49038e-06
5.21999e-06
4.03116e-06
2.98912e-06
2.12813e-06
1.45473e-06
9.54743e-07
6.01581e-07
3.63907e-07
2.11329e-07
1.1781e-07
6.30426e-08
3.23815e-08
1.59641e-08
7.55345e-09
3.42982e-09
1.49447e-09
6.24815e-10
2.50623e-10
9.64377e-11
3.55936e-11
1.25989e-11
4.27619e-12
1.39133e-12
4.38674e-13
4.3015e-14
0
0
0
0
0
0
0
0
0
0
0
0
0
0
0
0
0
0
0
0
0
0
0
0
0
0
0
0
0
2.98183e-20
1.58442e-19
8.06061e-19
3.92767e-18
1.83362e-17
8.20363e-17
3.51826e-16
1.44665e-15
5.70411e-15
2.15709e-14
7.82469e-14
2.72291e-13
9.09113e-13
2.91246e-12
8.95364e-12
2.64162e-11
7.48003e-11
2.03295e-10
5.30353e-10
1.32814e-09
3.19293e-09
7.35968e-09
1.62885e-08
3.46447e-08
7.07556e-08
1.38758e-07
2.61301e-07
4.72514e-07
8.2051e-07
1.36822e-06
2.19095e-06
3.36916e-06
4.97534e-06
7.05569e-06
9.60892e-06
1.25669e-05
1.57834e-05
1.90368e-05
2.20498e-05
2.45263e-05
2.61985e-05
2.68741e-05
2.6473e-05
2.50425e-05
2.27486e-05
1.9844e-05
1.66224e-05
1.33704e-05
1.0327e-05
7.65902e-06
5.45422e-06
3.72943e-06
2.44846e-06
1.54337e-06
9.34027e-07
5.42686e-07
3.02705e-07
1.6209e-07
8.33171e-08
4.11088e-08
1.94685e-08
8.84914e-09
3.86019e-09
1.61593e-09
6.49087e-10
2.50155e-10
9.24902e-11
3.28025e-11
1.11579e-11
3.63947e-12
1.14655e-12
1.50998e-13
0
0
0
0
0
0
0
0
0
0
0
0
0
0
0
0
0
0
0
0
0
0
0
0
0
0
0
0
1.36379e-20
7.55444e-20
4.00556e-19
2.03381e-18
9.89225e-18
4.61048e-17
2.05956e-16
8.82012e-16
3.62185e-15
1.42631e-14
5.38753e-14
1.95215e-13
6.78637e-13
2.26363e-12
7.2453e-12
2.22551e-11
6.56076e-11
1.85636e-10
5.04174e-10
1.31442e-09
3.28958e-09
7.90372e-09
1.82094e-08
4.02834e-08
8.56362e-08
1.74812e-07
3.42667e-07
6.45015e-07
1.16592e-06
2.02385e-06
3.37365e-06
5.40056e-06
8.30227e-06
1.22569e-05
1.73775e-05
2.36603e-05
3.09374e-05
3.88487e-05
4.68488e-05
5.42562e-05
6.03431e-05
6.44514e-05
6.61091e-05
6.51197e-05
6.16001e-05
5.59584e-05
4.88158e-05
4.0894e-05
3.28972e-05
2.54127e-05
1.88508e-05
1.34272e-05
9.18355e-06
6.03108e-06
3.80301e-06
2.30248e-06
1.33841e-06
7.46947e-07
4.00206e-07
2.05851e-07
1.01643e-07
4.81766e-08
2.19182e-08
9.57107e-09
4.01116e-09
1.61326e-09
6.22623e-10
2.30565e-10
8.19151e-11
2.79181e-11
9.12635e-12
2.87043e-12
4.60677e-13
0
0
0
0
0
0
0
0
0
0
0
0
0
0
0
0
0
0
0
0
0
0
0
0
0
0
0
0
0
9.14726e-20
8.20499e-19
4.88015e-18
2.39358e-17
1.10983e-16
4.9503e-16
2.11772e-15
8.68723e-15
3.41779e-14
1.2898e-13
4.66948e-13
1.62193e-12
5.4058e-12
1.72897e-11
5.30706e-11
1.56347e-10
4.42101e-10
1.19999e-09
3.12668e-09
7.82092e-09
1.87813e-08
4.3253e-08
9.56486e-08
2.03243e-07
4.14709e-07
8.12591e-07
1.529e-06
2.76282e-06
4.79421e-06
7.98919e-06
1.27854e-05
1.96497e-05
2.9002e-05
4.11088e-05
5.596e-05
7.31574e-05
9.18495e-05
0.000110747
0.000128241
0.000142614
0.00015231
0.000156218
0.000153875
0.000145556
0.000132228
0.000115355
9.66419e-05
7.77516e-05
6.00703e-05
4.45668e-05
3.1751e-05
2.17214e-05
1.42691e-05
9.00062e-06
5.45137e-06
3.17018e-06
1.77009e-06
9.48912e-07
4.88382e-07
2.41313e-07
1.14464e-07
5.212e-08
2.27806e-08
9.55714e-09
3.84824e-09
1.4871e-09
5.51474e-10
1.96237e-10
6.69987e-11
2.19448e-11
6.91187e-12
1.32539e-12
0
0
0
0
0
0
0
0
0
0
0
0
0
0
0
0
0
0
0
0
0
0
0
0
0
0
-0.0032682
-0.00509989
-0.0085881
-0.00555083
-0.00400683
-0.00534893
-0.00849664
-0.0050762
-0.00338141
-8.90224e-06
-3.48797e-09
-1.47648e-11
3.03479e-13
1.06822e-12
3.70873e-12
1.23554e-11
3.94999e-11
1.21194e-10
3.56895e-10
1.00881e-09
2.73719e-09
7.12947e-09
1.78273e-08
4.2797e-08
9.85419e-08
2.17872e-07
4.6283e-07
9.44138e-07
1.84949e-06
3.47919e-06
6.28521e-06
1.09039e-05
1.81665e-05
2.90663e-05
4.46624e-05
6.5907e-05
9.3403e-05
0.000127125
0.000166167
0.000208594
0.000251481
0.000291174
0.000323776
0.000345764
0.000354616
0.000349283
0.000330396
0.000300143
0.000261851
0.000219386
0.000176518
0.000136392
0.000101205
7.21148e-05
4.93456e-05
3.24239e-05
2.04583e-05
1.23951e-05
7.211e-06
4.02808e-06
2.16045e-06
1.11256e-06
5.50069e-07
2.61104e-07
1.18985e-07
5.2052e-08
2.18588e-08
8.81125e-09
3.40914e-09
1.26597e-09
4.51168e-10
1.54297e-10
5.06344e-11
1.58261e-11
3.2153e-12
0
0
0
0
0
0
0
0
0
0
0
0
0
0
0
0
0
0
0
0
0
0
0
0
-0.00381063
-0.00683541
0.00318431
0.0336953
0.061502
0.0812987
0.0880069
0.0828399
0.0644478
0.0372186
0.00545839
-0.0064659
-0.00410064
-2.29181e-06
-2.70873e-07
7.22044e-10
3.21043e-12
2.71292e-11
8.66479e-11
2.65739e-10
7.82241e-10
2.21025e-09
5.9949e-09
1.56094e-08
3.9019e-08
9.36417e-08
2.15576e-07
4.7655e-07
1.0121e-06
2.06412e-06
4.04251e-06
7.60293e-06
1.37318e-05
2.38178e-05
3.96738e-05
6.34659e-05
9.75022e-05
0.000143857
0.00020384
0.000277392
0.000362534
0.000455042
0.000548536
0.000635053
0.0007061
0.000754002
0.000773265
0.00076161
0.000720417
0.000654455
0.000570976
0.000478403
0.000384951
0.000297474
0.000220759
0.000157329
0.000107675
7.07667e-05
4.46628e-05
2.70681e-05
1.57527e-05
8.80294e-06
4.72355e-06
2.43368e-06
1.20393e-06
5.71837e-07
2.6077e-07
1.14167e-07
4.79856e-08
1.93617e-08
7.49929e-09
2.78816e-09
9.94978e-10
3.40783e-10
1.12016e-10
3.42981e-11
6.41156e-12
0
0
0
0
0
0
0
0
0
0
0
0
0
0
0
0
0
0
0
0
0
0
0
-0.00619208
-0.00104197
0.0382422
0.0922073
0.133891
0.163427
0.182275
0.189096
0.183724
0.16629
0.138039
0.0981124
0.0441245
0.00154944
-0.00654324
-6.06961e-05
-8.03431e-07