# vtk DataFile Version 2.0
Structured output generated by Nextsim
ASCII
DATASET STRUCTURED_POINTS
DIMENSIONS 101 101 1
ORIGIN 0 0 0
SPACING 0.01 0.01 0.01
POINT_DATA 10201
SCALARS interpolate DOUBLE 1
LOOKUP_TABLE default
0
0
0
0
0
0
0
0
0
0
0
0
0
0
0
0
0
0
0
0
0
0
0
0
0
0
0
0
0
0
0
0
0
0
0
0
0
0
0
0
0
0
0
0
0
0
0
0
0
0
0
0
0
0
0
0
0
0
0
0
0
0
0
0
0
0
0
0
0
0
0
0
0
0
0
0
0
0
0
0
0
0
0
0
0
0
0
0
0
0
0
0
0
0
0
0
0
0
0
0
0
0
0
0
0
0
0
0
0
0
0
0
0
0
0
0
0
0
0
0
0
0
0
0
0
0
0
0
0
0
0
0
0
0
0
0
0
0
0
0
0
0
0
0
0
0
0
0
0
0
0
0
0
0
0
0
0
0
0
0
0
0
0
0
0
0
0
0
0
0
0
0
0
0
0
0
0
0
0
0
0
0
0
0
0
0
0
0
0
0
0
0
0
0
0
0
0
0
0
0
0
0
0
0
0
0
0
0
0
0
0
0
0
0
0
0
0
0
0
0
0
0
0
0
0
0
0
0
0
0
0
0
0
0
0
0
0
0
0
0
0
0
0
0
0
0
0
0
0
0
0
0
0
0
0
0
0
0
0
0
0
0
0
0
0
0
0
0
0
0
0
0
0
0
0
0
0
0
0
0
0
0
0
0
0
0
0
0
0
0
0
0
0
0
0
0
0
0
0
0
0
0
0
0
0
0
0
0
0
0
0
0
0
0
0
0
0
0
0
0
0
0
0
0
0
0
0
0
0
0
0
0
0
0
0
0
0
0
0
0
0
0
0
0
0
0
0
0
0
0
0
0
0
0
0
0
0
0
0
0
0
0
0
0
0
0
0
0
0
0
0
0
0
0
0
0
0
0
0
0
0
0
0
0
0
0
0
0
0
0
0
0
0
0
0
0
0
0
0
0
0
0
0
0
0
0
0
0
0
0
0
0
0
0
0
0
0
0
0
0
0
0
0
0
0
0
0
0
0
0
0
0
0
0
0
0
0
0
0
0
0
0
0
0
0
0
0
0
0
0
0
0
0
0
0
0
0
0
0
0
0
0
0
0
0
0
0
0
0
0
0
0
0
0
0
0
0
0
0
0
0
0
0
0
0
0
0
0
0
0
0
0
0
0
0
0
0
0
0
0
0
0
0
0
0
0
0
0
0
0
0
0
0
0
0
0
0
0
0
0
0
0
0
0
0
0
0
0
0
0
0
0
0
0
0
0
0
0
0
0
0
0
0
0
0
0
0
0
0
0
0
0
0
0
0
0
0
0
0
0
0
0
0
0
0
0
0
0
0
0
0
0
0
0
0
0
0
0
0
0
0
0
0
0
0
0
0
0
0
0
0
0
0
0
0
0
0
0
0
0
0
0
0
0
0
0
0
0
0
0
0
0
0
0
0
0
0
0
0
0
0
0
0
0
0
0
0
0
0
0
0
0
0
0
0
0
0
0
0
0
0
0
0
0
0
0
0
0
0
0
0
0
0
0
0
0
0
0
0
0
0
0
0
0
0
0
0
0
0
0
0
0
0
0
0
0
0
0
0
0
0
0
0
0
0
0
0
0
0
0
0
0
0
0
0
0
0
0
0
0
0
0
0
0
0
0
0
0
0
0
0
0
0
0
0
0
0
0
0
0
0
0
0
0
0
0
0
0
0
0
0
0
0
0
0
0
0
0
0
0
0
0
0
0
0
0
0
0
0
0
0
0
0
0
0
0
0
0
0
0
0
0
0
0
0
0
0
0
0
0
0
0
0
0
0
0
0
0
0
0
0
0
0
0
0
0
0
0
0
0
0
0
0
0
0
0
0
0
0
0
0
0
0
0
0
0
0
0
0
0
0
0
0
0
0
0
0
0
0
0
0
0
0
0
0
0
0
0
0
0
0
0
0
0
0
0
0
0
0
0
0
0
0
0
0
0
0
0
0
0
0
0
0
0
0
0
0
0
0
0
0
0
0
0
0
0
0
0
0
0
0
1.90001e-20
4.4485e-20
9.78127e-20
1.96337e-19
3.07777e-19
1.84571e-19
1.49348e-20
0
0
0
0
0
0
0
0
0
0
0
0
0
0
0
0
0
0
0
0
0
0
0
0
0
0
0
0
0
0
0
0
0
0
0
0
0
0
0
0
0
0
0
0
0
0
0
0
0
0
0
0
0
0
0
0
0
0
0
0
0
0
0
0
0
0
0
0
0
0
0
0
0
0
0
0
0
0
0
0
0
0
0
0
0
0
0
0
0
0
0
1.06835e-20
1.08225e-19
6.71886e-19
1.87758e-18
4.09938e-18
8.44722e-18
1.59918e-17
2.38982e-17
1.4055e-17
1.14598e-18
6.72576e-19
5.3806e-20
3.12254e-20
0
0
0
0
0
0
0
0
0
0
0
0
0
0
0
0
0
0
0
0
0
0
0
0
0
0
0
0
0
0
0
0
0
0
0
0
0
0
0
0
0
0
0
0
0
0
0
0
0
0
0
0
0
0
0
0
0
0
0
0
0
0
0
0
0
0
0
0
0
0
0
0
0
0
0
0
0
0
0
0
0
0
0
0
0
0
0
8.19879e-20
1.10997e-18
1.06913e-17
6.35252e-17
1.67521e-16
3.40987e-16
6.58337e-16
1.17522e-15
1.67416e-15
9.65369e-16
7.97522e-17
4.59823e-17
3.74029e-18
2.13511e-18
5.47962e-20
0
0
0
0
0
0
0
0
0
0
0
0
0
0
0
0
0
0
0
0
0
0
0
0
0
0
0
0
0
0
0
0
0
0
0
0
0
0
0
0
0
0
0
0
0
0
0
0
0
0
0
0
0
0
0
0
0
0
0
0
0
0
0
0
0
0
0
0
0
0
0
0
0
0
0
0
0
0
0
0
0
0
0
0
2.38475e-20
4.90939e-19
8.11904e-18
1.03523e-16
9.46119e-16
5.382e-15
1.34057e-14
2.5433e-14
4.59963e-14
7.74085e-14
1.05108e-13
5.94149e-14
5.00702e-15
2.8358e-15
2.35802e-16
1.32396e-16
3.5752e-18
0
0
0
0
0
0
0
0
0
0
0
0
0
0
0
0
0
0
0
0
0
0
0
0
0
0
0
0
0
0
0
0
0
0
0
0
0
0
0
0
0
0
0
0
0
0
0
0
0
0
0
0
0
0
0
0
0
0
0
0
0
0
0
0
0
0
0
0
0
0
0
0
0
0
0
0
0
0
0
0
0
0
0
1.06107e-19
2.45407e-18
4.676e-17
7.19801e-16
8.60675e-15
7.43996e-14
4.05186e-13
9.54205e-13
1.68685e-12
2.85705e-12
4.53187e-12
5.86476e-12
3.24978e-12
2.81707e-13
1.56727e-13
1.34104e-14
7.40589e-15
2.115e-16
9.74103e-20
0
0
0
0
0
0
0
0
0
0
0
0
0
0
0
0
0
0
0
0
0
0
0
0
0
0
0
0
0
0
0
0
0
0
0
0
0
0
0
0
0
0
0
0
0
0
0
0
0
0
0
0
0
0
0
0
0
0
0
0
0
0
0
0
0
0
0
0
0
0
0
0
0
0
0
0
0
0
0
0
1.37389e-20
4.20474e-19
1.07401e-17
2.27765e-16
3.98585e-15
5.6709e-14
6.32241e-13
5.14588e-12
2.68195e-11
5.97719e-11
9.84355e-11
1.56105e-10
2.33331e-10
2.87757e-10
1.56325e-10
1.40856e-11
7.69887e-12
6.83451e-13
3.7126e-13
1.1284e-14
6.08697e-18
0
0
0
0
0
0
0
0
0
0
0
0
0
0
0
0
0
0
0
0
0
0
0
0
0
0
0
0
0
0
0
0
0
0
0
0
0
0
0
0
0
0
0
0
0
0
0
0
0
0
0
0
0
0
0
0
0
0
0
0
0
0
0
0
0
0
0
0
0
0
0
0
0
0
0
0
0
0
0
4.4336e-20
1.49472e-18
4.20908e-17
9.82927e-16
1.89632e-14
3.01858e-13
3.93318e-12
4.05808e-11
3.0895e-10
1.53932e-09
3.24971e-09
4.98451e-09
7.39985e-09
1.04204e-08
1.22457e-08
6.52463e-09
6.19308e-10
3.32665e-10
3.09547e-11
1.65429e-11
5.39357e-13
3.44874e-16
1.69054e-19
0
0
0
0
0
0
0
0
0
0
0
0
0
0
0
0
0
0
0
0
0
0
0
0
0
0
0
0
0
0
0
0
0
0
0
0
0
0
0
0
0
0
0
0
0
0
0
0
0
0
0
0
0
0
0
0
0
0
0
0
0
0
0
0
0
0
0
0
0
0
0
0
0
0
0
0
0
1.26926e-19
4.7194e-18
1.47113e-16
3.80305e-15
8.08063e-14
1.40621e-12
2.01217e-11
2.37263e-10
2.24338e-09
1.58238e-08
7.52131e-08
1.50544e-07
2.15022e-07
2.98779e-07
3.96314e-07
4.43784e-07
2.32106e-07
2.36175e-08
1.24754e-08
1.23284e-09
6.48421e-10
2.29055e-11
1.76226e-14
1.0135e-17
0
0
0
0
0
0
0
0
0
0
0
0
0
0
0
0
0
0
0
0
0
0
0
0
0
0
0
0
0
0
0
0
0
0
0
0
0
0
0
0
0
0
0
0
0
0
0
0
0
0
0
0
0
0
0
0
0
0
0
0
0
0
0
0
0
0
0
0
0
0
0
0
0
0
0
0
3.17769e-19
1.30017e-17
4.49246e-16
1.29446e-14
3.0682e-13
5.90909e-12
9.19618e-11
1.16623e-09
1.22506e-08
1.04803e-07
6.75269e-07
3.05016e-06
5.79242e-06
7.70316e-06
1.00176e-05
1.25151e-05
1.33549e-05
6.86769e-06
7.67082e-07
3.98898e-07
4.259e-08
2.20592e-08
8.55198e-10
8.06767e-13
5.50913e-16
0
0
0
0
0
0
0
0
0
0
0
0
0
0
0
0
0
0
0
0
0
0
0
0
0
0
0
0
0
0
0
0
0
0
0
0
0
0
0
0
0
0
0
0
0
0
0
0
0
0
0
0
0
0
0
0
0
0
0
0
0
0
0
0
0
0
0
0
0
0
0
0
0
0
1.35955e-20
6.86291e-19
3.06851e-17
1.17007e-15
3.757e-14
1.00089e-12
2.17469e-11
3.78722e-10
5.22952e-09
5.7808e-08
5.29665e-07
4.03134e-06
2.32202e-05
9.89507e-05
0.000178355
0.000220846
0.0002688
0.000316301
0.000321763
0.000163206
2.06938e-05
1.06149e-05
1.25327e-06
6.39906e-07
2.76905e-08
3.28163e-11
2.70076e-14
0
0
0
0
0
0
0
0
0
0
0
0
0
0
0
0
0
0
0
0
0
0
0
0
0
0
0
0
0
0
0
0
0
0
0
0
0
0
0
0
0
0
0
0
0
0
0
0
0
0
0
0
0
0
0
0
0
0
0
0
0
0
0
0
0
0
0
0
0
0
0
0
0
2.49931e-20
1.29381e-18
6.10141e-17
2.54229e-15
9.02626e-14
2.69272e-12
6.63512e-11
1.32223e-09
2.08038e-08
2.53241e-07
2.3944e-06
1.85836e-05
0.000123006
0.000611858
0.00242438
0.00414552
0.00478099
0.00544824
0.0060407
0.00586366
0.00295267
0.000447188
0.000227086
3.06398e-05
1.545e-05
7.63615e-07
1.17358e-09
1.1862e-12
0
0
0
0
0
0
0
0
0
0
0
0
0
0
0
0
0
0
0
0
0
0
0
0
0
0
0
0
0
0
0
0
0
0
0
0
0
0
0
0
0
0
0
0
0
0
0
0
0
0
0
0
0
0
0
0
0
0
0
0
0
0
0
0
0
0
0
0
0
0
0
0
3.97506e-20
2.11661e-18
1.02617e-16
4.5106e-15
1.74728e-13
5.76687e-12
1.59712e-10
3.64027e-09
6.65808e-08
9.46643e-07
1.01114e-05
8.0079e-05
0.000504388
0.00281053
0.0113788
0.0405547
0.0655857
0.0705333
0.0753448
0.078815
0.0731961
0.0371558
0.0073176
0.00370506
0.000600339
0.000299933
1.74949e-05
3.64005e-08
4.62896e-11
0
0
0
0
0
0
0
0
0
0
0
0
0
0
0
0
0
0
0
0
0
0
0
0
0
0
0
0
0
0
0
0
0
0
0
0
0
0
0
0
0
0
0
0
0
0
0
0
0
0
0
0
0
0
0
0
0
0
0
0
0
0
0
0
0
0
0
0
0
0
0
5.20118e-20
2.85639e-18
1.42783e-16
6.46841e-15
2.64145e-13
9.48001e-12
2.90098e-10
7.44526e-09
1.56822e-07
2.63219e-06
3.38199e-05
0.000315849
0.00204744
0.0097818
0.0435274
0.128107
0.372309
0.56161
0.56591
0.569378
0.564824
0.506684
0.272062
0.0822531
0.0422131
0.00891648
0.00444201
0.000321309
9.6167e-07
1.58814e-09
0
0
0
0
0
0
0
0
0
0
0
0
0
0
0
0
0
0
0
0
0
0
0
0
0
0
0
0
0
0
0
0
0
0
0
0
0
0
0
0
0
0
0
0
0
0
0
0
0
0
0
0
0
0
0
0
0
0
0
0
0
0
0
0
0
0
0
0
0
0
5.17456e-20
2.93824e-18
1.51837e-16
7.10969e-15
3.00017e-13
1.13326e-11
3.75061e-10
1.05989e-08
2.51201e-07
4.87427e-06
7.48582e-05
0.000866483
0.00703217
0.0362809
0.116677
0.369867
0.617317
0.834082
0.999997
0.999944
0.99922
0.991698
0.938352
0.730123
0.517587
0.283079
0.0912019
0.0459703
0.00447697
2.11115e-05
4.7255e-08
0
0
0
0
0
0
0
0
0
0
0
0
0
0
0
0
0
0
0
0
0
0
0
0
0
0
0
0
0
0
0
0
0
0
0
0
0
0
0
0
0
0
0
0
0
0
0
0
0
0
0
0
0
0
0
0
0
0
0
0
0
0
0
0
0
0
0
0
0
3.38334e-20
1.99147e-18
1.06683e-16
5.17857e-15
2.26553e-13
8.87248e-12
3.08428e-10
9.35848e-09
2.42758e-07
5.27688e-06
9.35279e-05
0.0012997
0.0133449
0.0919189
0.358136
0.607382
0.829031
1
1
1
1
0.999997
0.999952
0.999307
0.992379
0.941605
0.737281
0.526644
0.280648
0.0430767
0.00037164
1.19761e-06
2.69608e-20
2.17574e-20
1.68814e-20
1.25917e-20
0
0
0
0
0
0
0
0
0
0
0
0
0
0
0
0
0
0
0
0
0
0
0
0
0
0
0
0
0
0
0
0
0
0
0
0
0
0
0
0
0
0
0
0
0
0
0
0
0
0
0
0
0
0
0
0
0
0
0
0
0
0
0
0
1.01934e-20
6.24676e-19
3.48549e-17
1.76318e-15
8.04376e-14
3.28781e-12
1.1942e-10
3.8147e-09
1.05722e-07
2.49679e-06
4.90407e-05
0.000773941
0.00931573
0.078483
0.393719
0.823825
1
1
1
1
1
1
1
1
0.999998
0.999956
0.999338
0.992269
0.935988
0.674795
0.236638
0.00496653
2.52182e-05
1.67135e-19
1.34613e-19
1.04242e-19
7.7602e-20
5.5536e-20
3.82067e-20
2.52675e-20
1.60634e-20
0
0
0
0
0
0
0
0
0
0
0
0
0
0
0
0
0
0
0
0
0
0
0
0
0
0
0
0
0
0
0
0
0
0
0
0
0
0
0
0
0
0
0
0
0
0
0
0
0
0
0
0
0
0
0
0
0
0
0
0
2.04132e-20
1.27076e-18
7.20238e-17
3.70046e-15
1.71419e-13
7.1116e-12
2.62007e-10
8.48069e-09
2.36831e-07
5.57353e-06
0.00010763
0.0016421
0.0186871
0.144134
0.626987
1
1
1
1
1
1
1
1
1
1
0.999996
0.999927
0.998848
0.986139
0.884317
0.442572
0.0459022
0.000425735
9.98395e-19
8.02266e-19
6.20103e-19
4.60769e-19
3.29134e-19
2.26008e-19
1.49188e-19
9.46662e-20
5.77434e-20
3.38572e-20
1.90824e-20
1.03383e-20
0
0
0
0
0
0
0
0
0
0
0
0
0
0
0
0
0
0
0
0
0
0
0
0
0
0
0
0
0
0
0
0
0
0
0
0
0
0
0
0
0
0
0
0
0
0
0
0
0
0
0
0
0
0
0
0
2.25911e-19
1.3629e-17
7.45395e-16
3.67627e-14
1.62432e-12
6.37681e-11
2.20132e-09
6.59289e-08
1.68269e-06
3.57106e-05
0.000608609
0.00790149
0.0715863
0.38272
0.81846
1
1
1
1
1
1
1
1
1
1
0.999998
0.999968
0.999475
0.993415
0.94166
0.685685
0.243388
0.00545346
5.73365e-18
4.60545e-18
3.55336e-18
2.6356e-18
1.87926e-18
1.28812e-18
8.48758e-19
5.37603e-19
3.27329e-19
1.91579e-19
1.07782e-19
5.82875e-20
3.0299e-20
1.51391e-20
0
0
0
0
0
0
0
0
0
0
0
0
0
0
0
0
0
0
0
0
0
0
0
0
0
0
0
0
0
0
0
0
0
0
0
0
0
0
0
0
0
0
0
0
0
0
0
0
0
0
0
0
0
0
4.32087e-19
2.65035e-17
1.47383e-15
7.39006e-14
3.31888e-12
1.32378e-10
4.63941e-09
1.40895e-07
3.62174e-06
7.63662e-05
0.00127125
0.0157635
0.132054
0.617489
1
1
1
1
1
1
1
1
1
1
1
1
0.999998
0.999947
0.99909
0.988173
0.893696
0.4529
0.0482357
3.16215e-17
2.54633e-17
1.96125e-17
1.4522e-17
1.03367e-17
7.07296e-18
4.65238e-18
2.94171e-18
1.788e-18
1.04466e-18
5.86705e-19
3.16732e-19
1.64357e-19
8.19794e-20
3.93038e-20
1.81123e-20
0
0
0
0
0
0
0
0
0
0
0
0
0
0
0
0
0
0
0
0
0
0
0
0
0
0
0
0
0
0
0
0
0
0
0
0
0
0
0
0
0
0
0
0
0
0
0
0
0
0
0
7.47661e-20
4.90731e-18
2.9208e-16
1.56752e-14
7.53536e-13
3.21796e-11
1.20806e-09
3.93329e-08
1.09096e-06
2.51601e-05
0.000466027
0.00657383
0.0645915
0.371392
0.812932
1
1
1
1
1
1
1
1
1
1
1
1
0.999999
0.999977
0.999591
0.994453
0.947051
0.69527
0.243059
1.68686e-16
1.35585e-16
1.04259e-16
7.70704e-17
5.47677e-17
3.74129e-17
2.45681e-17
1.55086e-17
9.41055e-18
5.48905e-18
3.07761e-18
1.65866e-18
8.59262e-19
4.27871e-19
2.04792e-19
9.42156e-20
4.16617e-20
1.77072e-20
0
0
0
0
0
0
0
0
0
0
0
0
0
0
0
0
0
0
0
0
0
0
0
0
0
0
0
0
0
0
0
0
0
0
0
0
0
0
0
0
0
0
0
0
0
0
0
0
0
1.12937e-19
7.49989e-18
4.52159e-16
2.45842e-14
1.19737e-12
5.18043e-11
1.9699e-09
6.49342e-08
1.82174e-06
4.24377e-05
0.00079215
0.0112054
0.109097
0.598643
1
1
1
1
1
1
1
1
1
1
1
1
1
1
0.999998
0.999958
0.999218
0.988891
0.891391
0.401759
8.70332e-16
6.95245e-16
5.33768e-16
3.93944e-16
2.79499e-16
1.90626e-16
1.24979e-16
7.87666e-17
4.77186e-17
2.77889e-17
1.55556e-17
8.37012e-18
4.32911e-18
2.15221e-18
1.02845e-18
4.72378e-19
2.08545e-19
8.84934e-20
3.60924e-20
1.41485e-20
0
0
0
0
0
0
0
0
0
0
0
0
0
0
0
0
0
0
0
0
0
0
0
0
0
0
0
0
0
0
0
0
0
0
0
0
0
0
0
0
0
0
0
0
0
0
0
6.44184e-20
4.41114e-18
2.77304e-16
1.57343e-14
8.00065e-13
3.61548e-11
1.43671e-09
4.95203e-08
1.45377e-06
3.54499e-05
0.000692494
0.0102457
0.104197
0.59461
1
1
1
1
1
1
1
1
1
1
1
1
1
1
0.999999
0.999965
0.999316
0.989842
0.896263
0.405771
4.30516e-15
3.43288e-15
2.63156e-15
1.93925e-15
1.37378e-15
9.3552e-16
6.12409e-16
3.85368e-16
2.33105e-16
1.35539e-16
7.57543e-17
4.06984e-17
2.1017e-17
1.04323e-17
4.9774e-18
2.28262e-18
1.00616e-18
4.26284e-19
1.73591e-19
6.79427e-20
2.5559e-20
0
0
0
0
0
0
0
0
0
0
0
0
0
0
0
0
0
0
0
0
0
0
0
0
0
0
0
0
0
0
0
0
0
0
0
0
0
0
0
0
0
0
0
0
0
0
3.83125e-20
2.49668e-18
1.63981e-16
9.76036e-15
5.20743e-13
2.46925e-11
1.02962e-09
3.72391e-08
1.14709e-06
2.9346e-05
0.000601269
0.00932563
0.0992875
0.590529
0.999994
1
1
1
1
1
1
1
1
1
1
1
1
1
0.999999
0.999971
0.9994
0.990678
0.900674
0.409424
2.04967e-14
1.6321e-14
1.24931e-14
9.19299e-15
6.50282e-15
4.42181e-15
2.89033e-15
1.8161e-15
1.09691e-15
6.36852e-16
3.55415e-16
1.90659e-16
9.83109e-17
4.87261e-17
2.32131e-17
1.06295e-17
4.67836e-18
1.97913e-18
8.04725e-19
3.14493e-19
1.1813e-19
4.26465e-20
1.47913e-20
0
0
0
0
0
0
0
0
0
0
0
0
0
0
0
0
0
0
0
0
0
0
0
0
0
0
0
0
0
0
0
0
0
0
0
0
0
0
0
0
0
0
0
0
3.73519e-20
1.41672e-18
9.44956e-17
5.90715e-15
3.31474e-13
1.65327e-11
7.25138e-10
2.75866e-08
8.93779e-07
2.40467e-05
0.000518007
0.00844238
0.0943227
0.586063
0.999688
1
1
1
1
1
1
1
1
1
1
1
1
1
0.999999
0.999971
0.999399
0.990556
0.899333
0.408204
9.39556e-14
7.47096e-14
5.71076e-14
4.19635e-14
2.9642e-14
2.01276e-14
1.31379e-14
8.24331e-15
4.97182e-15
2.88245e-15
1.60634e-15
8.60473e-16
4.43054e-16
2.19276e-16
1.04313e-16
4.76968e-17
2.09625e-17
8.85513e-18
3.59534e-18
1.40305e-18
5.2625e-19
1.89709e-19
6.57047e-20
2.15841e-20
1.0131e-20
0
0
0
0
0
0
0
0
0
0
0
0
0
0
0
0
0
0
0
0
0
0
0
0
0
0
0
0
0
0
0
0
0
0
0
0
0
0
0
0
0
2.9091e-20
9.74342e-20
9.77319e-19
5.31952e-17
3.46379e-15
2.04727e-13
1.07589e-11
4.9713e-10
1.99178e-08
6.7929e-07
1.92283e-05
0.000435606
0.00746143
0.0875108
0.568871
0.988395
0.999991
1
1
1
1
1
1
1
1
1
1
1
1
0.999997
0.999935
0.998747
0.982754
0.85088
0.366935
4.14613e-13
3.29244e-13
2.51337e-13
1.84439e-13
1.30108e-13
8.8227e-14
5.75103e-14
3.60354e-14
2.17045e-14
1.25661e-14
6.99326e-15
3.74094e-15
1.92354e-15
9.50681e-16
4.51625e-16
2.06218e-16
9.05059e-17
3.81789e-17
1.54797e-17
6.0324e-18
2.25945e-18
8.13374e-19
2.81326e-19
9.23587e-20
4.33967e-20
0
0
0
0
0
0
0
0
0
0
0
0
0
0
0
0
0
0
0
0
0
0
0
0
0
0
0
0
0
0
0
0
0
0
0
0
0
0
0
1.19755e-20
3.95767e-20
1.25834e-19
3.8759e-19
1.37886e-18
2.19531e-17
1.28823e-15
7.82122e-14
4.24444e-12
2.02535e-10
8.38175e-09
2.95495e-07
8.65679e-06
0.000203361
0.00362795
0.0448073
0.317995
0.776178
0.999557
1
1
1
1
1
1
1
1
1
1
1
1
0.999987
0.999719
0.99506
0.941096
0.610034
0.164267
1.76126e-12
1.39685e-12
1.06496e-12
7.80497e-13
5.49871e-13
3.72389e-13
2.42424e-13
1.51703e-13
9.12522e-14
5.27623e-14
2.93244e-14
1.56659e-14
8.04451e-15
3.9706e-15
1.88374e-15
8.58993e-16
3.76494e-16
1.58607e-16
6.42213e-17
2.49933e-17
9.34867e-18
3.36089e-18
1.16093e-18
3.80911e-19
1.79176e-19
0
0
0
0
0
0
0
0
0
0
0
0
0
0
0
0
0
0
0
0
0
0
0
0
0
0
0
0
0
0
0
0
0
0
0
0
0
0
1.44853e-20
4.98279e-20
1.64861e-19
5.24626e-19
1.60575e-18
4.73207e-18
1.37853e-17
6.32437e-17
1.72456e-15
9.15009e-14
4.73364e-12
2.2699e-10
9.95054e-09
3.80817e-07
1.21024e-05
0.000307681
0.00590819
0.0774752
0.557884
0.986007
0.999985
0.999999
0.999999
1
1
1
1
1
1
1
0.999999
0.999996
0.999939
0.999039
0.985672
0.863
0.376425
8.73993e-12
7.20186e-12
5.70482e-12
4.34406e-12
3.17981e-12
2.23746e-12
1.51339e-12
9.83987e-13
6.14982e-13
3.6946e-13
2.13353e-13
1.18428e-13
6.31874e-14
3.24056e-14
1.59743e-14
7.56885e-15
3.447e-15
1.50887e-15
6.34828e-16
2.56715e-16
9.97777e-17
3.72733e-17
1.33825e-17
4.6168e-18
1.51402e-18
7.12994e-19
0
0
0
0
0
0
0
0
0
0
0
0
0
0
0
0
0
0
0
0
0
0
0
0
0
0
0
0
0
0
0
0
0
0
0
0
0
1.61562e-20
5.78522e-20
1.99246e-19
6.59987e-19
2.10257e-18
6.44203e-18
1.89828e-17
5.38505e-17
1.51614e-16
7.67998e-16
2.73335e-14
1.61479e-12
8.67927e-11
4.05265e-09
1.61138e-07
5.31979e-06
0.000140701
0.00282126
0.0390136
0.306387
0.769457
0.999373
0.999945
0.999969
0.999997
0.999998
1
1
1
1
0.999998
0.999985
0.999931
0.999438
0.995531
0.948128
0.621359
0.169268
3.44385e-11
2.83453e-11
2.24272e-11
1.70577e-11
1.24714e-11
8.76511e-12
5.9216e-12
3.84555e-12
2.40055e-12
1.44043e-12
8.30804e-13
4.60603e-13
2.45455e-13
1.25728e-13
6.19013e-14
2.92936e-14
1.33244e-14
5.82534e-15
2.44787e-15
9.88653e-16
3.83783e-16
1.43189e-16
5.13461e-17
1.76922e-17
5.79909e-18
2.73421e-18
0
0
0
0
0
0
0
0
0
0
0
0
0
0
0
0
0
0
0
0
0
0
0
0
0
0
0
0
0
0
0
0
0
0
0
0
1.66141e-20
6.19338e-20
2.22052e-19
7.65677e-19
2.53918e-18
8.09823e-18
2.48385e-17
7.32639e-17
2.07816e-16
5.66946e-16
1.49278e-15
4.14867e-15
3.45731e-14
1.56516e-12
8.82851e-11
4.52327e-09
1.9749e-07
7.1556e-06
0.000207329
0.00453291
0.0674985
0.546624
0.982574
0.998147
0.998985
0.999901
0.999944
0.999994
0.999993
0.99999
0.999986
0.999957
0.999693
0.998906
0.993692
0.979131
0.870771
0.386153
1.52703e-10
1.30603e-10
1.07377e-10
8.48642e-11
6.44743e-11
4.70863e-11
3.30556e-11
2.23066e-11
1.44696e-11
9.02212e-12
5.4074e-12
3.11524e-12
1.7251e-12
9.1823e-13
4.69787e-13
2.31024e-13
1.09199e-13
4.96111e-14
2.16639e-14
9.09253e-15
3.66794e-15
1.42214e-15
5.29963e-16
1.89812e-16
6.53263e-17
2.1403e-17
1.01037e-17
0
0
0
0
0
0
0
0
0
0
0
0
0
0
0
0
0
0
0
0
0
0
0
0
0
0
0
0
0
0
0
0
0
0
0
1.57503e-20
6.11284e-20
2.28172e-19
8.19092e-19
2.82779e-18
9.38852e-18
2.9976e-17
9.20385e-17
2.71754e-16
7.71592e-16
2.10668e-15
5.532e-15
1.40596e-14
4.15124e-14
6.14175e-13
3.32422e-11
1.77171e-09
8.07387e-08
3.05356e-06
9.24192e-05
0.00211615
0.0332568
0.292389
0.739929
0.957604
0.977497
0.997239
0.998498
0.999826
0.999784
0.999735
0.999659
0.999195
0.99505
0.985985
0.937382
0.862901
0.590267
0.174423
5.57901e-10
4.76661e-10
3.91484e-10
3.09078e-10
2.34568e-10
1.71124e-10
1.20003e-10
8.08924e-11
5.2415e-11
3.26461e-11
1.95448e-11
1.12474e-11
6.22141e-12
3.3078e-12
1.69044e-12
8.30359e-13
3.92043e-13
1.7791e-13
7.75999e-14
3.25322e-14
1.31085e-14
5.07661e-15
1.88962e-15
6.76006e-16
2.32394e-16
7.61092e-17
3.59746e-17
0
0
0
0
0
0
0
0
0
0
0
0
0
0
0
0
0
0
0
0
0
0
0
0
0
0
0
0
0
0
0
0
0
0
1.37629e-20
5.56174e-20
2.16151e-19
8.07875e-19
2.90375e-18
1.00368e-17
3.33616e-17
1.06636e-16
3.27763e-16
9.68742e-16
2.75323e-15
7.52411e-15
1.97716e-14
4.99582e-14
1.21438e-13
2.87836e-13
9.28304e-13
2.04772e-11
1.10348e-09
5.39885e-08
2.19397e-06
7.11792e-05
0.00173878
0.0288363
0.25819
0.485367
0.72815
0.94793
0.972235
0.995917
0.995285
0.994602
0.993655
0.988549
0.944334
0.876776
0.626544
0.380031
0.177946
2.20904e-09
1.96144e-09
1.67416e-09
1.37363e-09
1.08339e-09
8.2138e-10
5.98607e-10
4.19348e-10
2.82384e-10
1.82782e-10
1.13724e-10
6.80131e-11
3.90977e-11
2.16035e-11
1.14738e-11
5.85733e-12
2.87405e-12
1.35547e-12
6.14444e-13
2.67712e-13
1.12109e-13
4.51233e-14
1.74559e-14
6.49026e-15
2.31929e-15
7.9645e-16
2.60743e-16
1.23407e-16
0
0
0
0
0
0
0
0
0
0
0
0
0
0
0
0
0
0
0
0
0
0
0
0
0
0
0
0
0
0
0
0
0
1.10837e-20
4.66412e-20
1.8875e-19
7.34557e-19
2.74903e-18
9.89325e-18
3.42372e-17
1.13933e-16
3.64573e-16
1.12176e-15
3.31885e-15
9.44155e-15
2.58262e-14
6.79257e-14
1.71775e-13
4.17693e-13
9.77177e-13
2.2107e-12
4.84558e-12
1.03718e-11
3.127e-11
6.99529e-10
3.51925e-08
1.55025e-06
5.46048e-05
0.00144738
0.0260054
0.250854
0.473835
0.716287
0.93491
0.92995
0.924953
0.918721
0.889045
0.637939
0.389761
0.183364
8.44382e-09
8.1059e-09
7.48026e-09
6.63564e-09
5.65844e-09
4.63826e-09
3.65473e-09
2.76817e-09
2.01543e-09
1.4105e-09
9.48869e-10
6.13572e-10
3.81371e-10
2.2785e-10
1.30847e-10
7.22259e-11
3.83204e-11
1.95421e-11
9.57891e-12
4.51292e-12
2.0436e-12
8.89453e-13
3.72082e-13
1.49602e-13
5.78121e-14
2.14722e-14
7.66488e-15
2.62938e-15
8.60534e-16
4.07832e-16
0
0
0
0
0
0
0
0
0
0
0
0
0
0
0
0
0
0
0
0
0
0
0
0
0
0
0
0
0
0
0
0
0
3.6046e-20
1.5191e-19
6.15629e-19
2.39911e-18
8.99022e-18
3.23947e-17
1.12242e-16
3.73942e-16
1.1979e-15
3.68971e-15
1.09275e-14
3.11168e-14
8.51951e-14
2.24271e-13
5.67634e-13
1.38138e-12
3.23382e-12
7.31744e-12
1.60283e-11
3.3824e-11
6.86237e-11
1.33919e-10
2.56488e-10
8.29522e-10
2.27743e-08
1.06354e-06
4.09332e-05
0.00118586
0.0232404
0.242603
0.438824
0.434457
0.430096
0.424738
0.399731
0.188948
2.66097e-08
2.76199e-08
2.75587e-08
2.6433e-08
2.43715e-08
2.16005e-08
1.84031e-08
1.50715e-08
1.18647e-08
8.97833e-09
6.53077e-09
4.56627e-09
3.06891e-09
1.98257e-09
1.2311e-09
7.34808e-10
4.21567e-10
2.32471e-10
1.23219e-10
6.27755e-11
3.07399e-11
1.4468e-11
6.545e-12
2.84577e-12
1.18926e-12
4.77676e-13
1.84404e-13
6.842e-14
2.43987e-14
8.36138e-15
2.7357e-15
1.29833e-15
0
0
0
0
0
0
0
0
0
0
0
0
0
0
0
0
0
0
0
0
0
0
0
0
0
0
0
0
0
0
0
0
2.56688e-20
1.12666e-19
4.75513e-19
1.9298e-18
7.53068e-18
2.82567e-17
1.01946e-16
3.53646e-16
1.17955e-15
3.78277e-15
1.16638e-14
3.45785e-14
9.85601e-14
2.70098e-13
7.11647e-13
1.80271e-12
4.39052e-12
1.02852e-11
2.32786e-11
5.09765e-11
1.07528e-10
2.18057e-10
4.25116e-10
7.96769e-10
1.43563e-09
2.48676e-09
4.14101e-09
6.62911e-09
1.02018e-08
1.5093e-08
2.14654e-08
2.93476e-08
3.85718e-08
4.87337e-08
5.91902e-08
6.9108e-08
7.75644e-08
8.36855e-08
8.67938e-08
8.65317e-08
8.29294e-08
7.63985e-08
6.76554e-08
5.75915e-08
4.71249e-08
3.7066e-08
2.80241e-08
2.03664e-08
1.42273e-08
9.55329e-09
6.16598e-09
3.82532e-09
2.28111e-09
1.30748e-09
7.20327e-10
3.81443e-10
1.94146e-10
9.49786e-11
4.46598e-11
2.01836e-11
8.76735e-12
3.66034e-12
1.46878e-12
5.66458e-13
2.09968e-13
7.48015e-14
2.56094e-14
8.37688e-15
3.98121e-15
0
0
0
0
0
0
0
0
0
0
0
0
0
0
0
0
0
0
0
0
0
0
0
0
0
0
0
0
0
0
0
1.684e-20
7.699e-20
3.38447e-19
1.43055e-18
5.81394e-18
2.27187e-17
8.53564e-17
3.08337e-16
1.07089e-15
3.57596e-15
1.14805e-14
3.54363e-14
1.0516e-13
3.00029e-13
8.2297e-13
2.17025e-12
5.5022e-12
1.34113e-11
3.14388e-11
7.1174e-11
1.55826e-10
3.2857e-10
6.66035e-10
1.29791e-09
2.43147e-09
4.37893e-09
7.58119e-09
1.26176e-08
2.01875e-08
3.10495e-08
4.59082e-08
6.52509e-08
8.91542e-08
1.17099e-07
1.4785e-07
1.7945e-07
2.09371e-07
2.34821e-07
2.53166e-07
2.62373e-07
2.61382e-07
2.50307e-07
2.30414e-07
2.03883e-07
1.73415e-07
1.41783e-07
1.11427e-07
8.41747e-08
6.1122e-08
4.26614e-08
2.86214e-08
1.84571e-08
1.14406e-08
6.81619e-09
3.90341e-09
2.14857e-09
1.13673e-09
5.78046e-10
2.82529e-10
1.32726e-10
5.99289e-11
2.60077e-11
1.0848e-11
4.3489e-12
1.67565e-12
6.20525e-13
2.20853e-13
7.55421e-14
2.47046e-14
1.17583e-14
0
0
0
0
0
0
0
0
0
0
0
0
0
0
0
0
0
0
0
0
0
0
0
0
0
0
0
0
0
0
1.01764e-20
4.84665e-20
2.21938e-19
9.77144e-19
4.13633e-18
1.68344e-17
6.58718e-17
2.4781e-16
8.96291e-16
3.11665e-15
1.04191e-14
3.3487e-14
1.03471e-13
3.07366e-13
8.7778e-13
2.40993e-12
6.36079e-12
1.614e-11
3.93716e-11
9.23582e-11
2.09148e-10
4.57821e-10
9.65026e-10
1.95547e-09
3.80916e-09
7.13301e-09
1.28404e-08
2.22201e-08
3.69634e-08
5.91092e-08
9.08646e-08
1.34273e-07
1.90737e-07
2.60455e-07
3.41884e-07
4.31393e-07
5.23256e-07
6.10097e-07
6.83796e-07
7.36707e-07
7.62961e-07
7.59533e-07
7.26819e-07
6.68558e-07
5.91131e-07
5.02408e-07
4.10447e-07
3.22316e-07
2.43292e-07
1.7652e-07
1.23106e-07
8.25237e-08
5.31729e-08
3.29315e-08
1.96038e-08
1.12169e-08
6.16888e-09
3.26091e-09
1.65679e-09
8.09073e-10
3.7975e-10
1.71315e-10
7.42806e-11
3.09554e-11
1.23987e-11
4.77295e-12
1.76591e-12
6.27943e-13
2.14593e-13
7.0166e-14
3.34457e-14
0
0
0
0
0
0
0
0
0
0
0
0
0
0
0
0
0
0
0
0
0
0
0
0
0
0
0
0
0
0
2.81019e-20
1.34065e-19
6.14899e-19
2.71144e-18
1.14947e-17
4.68485e-17
1.83564e-16
6.91467e-16
2.50405e-15
8.71766e-15
2.91769e-14
9.38767e-14
2.90372e-13
8.63428e-13
2.46815e-12
6.78246e-12
1.79173e-11
4.55016e-11
1.11084e-10
2.60763e-10
5.90687e-10
1.29282e-09
2.72432e-09
5.51863e-09
1.07463e-08
2.01159e-08
3.6197e-08
6.26117e-08
1.04109e-07
1.66405e-07
2.55677e-07
3.77627e-07
5.3614e-07
7.31705e-07
9.5992e-07
1.21053e-06
1.46741e-06
1.70989e-06
1.91522e-06
2.06208e-06
2.13415e-06
2.12312e-06
2.03027e-06
1.86622e-06
1.64891e-06
1.40041e-06
1.14323e-06
8.97089e-07
6.76634e-07
4.90556e-07
3.41851e-07
2.2898e-07
1.47423e-07
9.12305e-08
5.42649e-08
3.10241e-08
1.70482e-08
9.00434e-09
4.57109e-09
2.23037e-09
1.04598e-09
4.71467e-10
2.0425e-10
8.50455e-11
3.40342e-11
1.30904e-11
4.83904e-12
1.71922e-12
5.87019e-13
1.9191e-13
9.16161e-14
0
0
0
0
0
0
0
0
0
0
0
0
0
0
0
0
0
0
0
0
0
0
0
0
0
0
0
0
0
1.50049e-20
7.45859e-20
3.56422e-19
1.63739e-18
7.23134e-18
3.07015e-17
1.25306e-16
4.91646e-16
1.85438e-15
6.72374e-15
2.34361e-14
7.85268e-14
2.52936e-13
7.83176e-13
2.33112e-12
6.66995e-12
1.83457e-11
4.85063e-11
1.23286e-10
3.01218e-10
7.07582e-10
1.60337e-09
3.50891e-09
7.39236e-09
1.49705e-08
2.91429e-08
5.45344e-08
9.80952e-08
1.69615e-07
2.81916e-07
4.50415e-07
6.91739e-07
1.02119e-06
1.44914e-06
1.97672e-06
2.59188e-06
3.26675e-06
3.95775e-06
4.60906e-06
5.15947e-06
5.5517e-06
5.74213e-06
5.70882e-06
5.45561e-06
5.01145e-06
4.42491e-06
3.75547e-06
3.06367e-06
2.40234e-06
1.81068e-06
1.31178e-06
9.13462e-07
6.11402e-07
3.9334e-07
2.43228e-07
1.44564e-07
8.25853e-08
4.53463e-08
2.39318e-08
1.21394e-08
5.91845e-09
2.77334e-09
1.24905e-09
5.40678e-10
2.24943e-10
8.99453e-11
3.45665e-11
1.27673e-11
4.53221e-12
1.54622e-12
5.05431e-13
2.41656e-13
0
0
0
0
0
0
0
0
0
0
0
0
0
0
0
0
0
0
0
0
0
0
0
0
0
0
0
0
0
3.82099e-20
1.90265e-19
9.10743e-19
4.19067e-18
1.85361e-17
7.88135e-17
3.22127e-16
1.2656e-15
4.77976e-15
1.73523e-14
6.05544e-14
2.03129e-13
6.54993e-13
2.03019e-12
6.04885e-12
1.73238e-11
4.76924e-11
1.26209e-10
3.21043e-10
7.85005e-10
1.84533e-09
4.18294e-09
9.15365e-09
1.92804e-08
3.90363e-08
7.59714e-08
1.42122e-07
2.55565e-07
4.41742e-07
7.33948e-07
1.17217e-06
1.79945e-06
2.65533e-06
3.76637e-06
5.13515e-06
6.72991e-06
8.47793e-06
1.02658e-05
1.19488e-05
1.33682e-05
1.43763e-05
1.48607e-05
1.47656e-05
1.4102e-05
1.29458e-05
1.14234e-05
9.68884e-06
7.89883e-06
6.18964e-06
4.66205e-06
3.37518e-06
2.34867e-06
1.57091e-06
1.00991e-06
6.24041e-07
3.70631e-07
2.11575e-07
1.16086e-07
6.12191e-08
3.103e-08
1.51168e-08
7.0782e-09
3.18541e-09
1.37779e-09
5.72766e-10
2.28846e-10
8.78773e-11
3.24322e-11
1.15038e-11
3.92155e-12
1.2817e-12
6.13659e-13
0
0
0
0
0
0
0
0
0
0
0
0
0
0
0
0
0
0
0
0
0
0
0
0
0
0
0
0
1.80211e-20
9.35197e-20
4.66496e-19
2.23673e-18
1.03086e-17
4.56672e-17
1.94459e-16
7.95916e-16
3.13129e-15
1.18412e-14
4.30411e-14
1.50379e-13
5.05017e-13
1.6302e-12
5.05813e-12
1.50854e-11
4.32451e-11
1.19161e-10
3.15609e-10
8.0349e-10
1.96621e-09
4.62526e-09
1.04883e-08
2.29513e-08
4.83346e-08
9.7842e-08
1.90375e-07
3.5605e-07
6.40074e-07
1.10603e-06
1.83705e-06
2.93286e-06
4.50071e-06
6.63877e-06
9.41265e-06
1.28278e-05
1.6804e-05
2.11587e-05
2.56084e-05
2.97914e-05
3.33131e-05
3.58059e-05
3.69921e-05
3.67347e-05
3.50636e-05
3.21698e-05
2.83695e-05
2.40472e-05
1.95922e-05
1.5343e-05
1.1549e-05
8.35563e-06
5.81055e-06
3.88378e-06
2.49512e-06
1.54072e-06
9.14432e-07
5.2164e-07
2.86009e-07
1.50722e-07
7.63413e-08
3.71642e-08
1.73889e-08
7.8198e-09
3.37983e-09
1.404e-09
5.60545e-10
2.1509e-10
7.93224e-11
2.81147e-11
9.57694e-12
3.12904e-12
1.4992e-12
0
0
0
0
0
0
0
0
0
0
0
0
0
0
0
0
0
0
0
0
0
0
0
0
0
0
0
0
4.2316e-20
2.19999e-19
1.09933e-18
5.27987e-18
2.43729e-17
1.08139e-16
4.61151e-16
1.89015e-15
7.44626e-15
2.8195e-14
1.02611e-13
3.58932e-13
1.20676e-12
3.89964e-12
1.21122e-11
3.6159e-11
1.03754e-10
2.8615e-10
7.58544e-10
1.93271e-09
4.73321e-09
1.11421e-08
2.52759e-08
5.53111e-08
1.16468e-07
2.35726e-07
4.58576e-07
8.57471e-07
1.54111e-06
2.66229e-06
4.42062e-06
7.05534e-06
1.08233e-05
1.59592e-05
2.26189e-05
3.08135e-05
4.03477e-05
5.07815e-05
6.14329e-05
7.14342e-05
7.98398e-05
8.57713e-05
8.85671e-05
8.79044e-05
8.38601e-05
7.68966e-05
6.77742e-05
5.74151e-05
4.67511e-05
3.65898e-05
2.75251e-05
1.99021e-05
1.38314e-05
9.23915e-06
5.93188e-06
3.66055e-06
2.17117e-06
1.23774e-06
6.78194e-07
3.57161e-07
1.80783e-07
8.79498e-08
4.11236e-08
1.84809e-08
7.98238e-09
3.3137e-09
1.3221e-09
5.06971e-10
1.86839e-10
6.61783e-11
2.25279e-11
7.35205e-12
3.51528e-12
0
0
0
0
0
0
0
0
0
0
0
0
0
0
0
0
0
0
0
0
0
0
0
0
0
0
0
1.87562e-20
1.02458e-19
5.31976e-19
2.48508e-18
1.19705e-17
5.5411e-17
2.46121e-16
1.05112e-15
4.31436e-15
1.70194e-14
6.45264e-14
2.35124e-13
8.23427e-13
2.77155e-12
8.9659e-12
2.78765e-11
8.33024e-11
2.39251e-10
6.60435e-10
1.75221e-09
4.46814e-09
1.09509e-08
2.57972e-08
5.85451e-08
1.28121e-07
2.69764e-07
5.45929e-07
1.06189e-06
1.98523e-06
3.56728e-06
6.16109e-06
1.02276e-05
1.63187e-05
2.50262e-05
3.68894e-05
5.22647e-05
7.1173e-05
9.31586e-05
0.000117201
0.000141724
0.000164723
0.000184022
0.000197601
0.000203943
0.000202317
0.000192911
0.000176801
0.000155745
0.00013187
0.000107319
8.39478e-05
6.3116e-05
4.56109e-05
3.16806e-05
2.11502e-05
1.35716e-05
8.37029e-06
4.96183e-06
2.82705e-06
1.54815e-06
8.14855e-07
4.12224e-07
2.00433e-07
9.3667e-08
4.20711e-08
1.81618e-08
7.53548e-09
3.00494e-09
1.15168e-09
4.24228e-10
1.50188e-10
5.11014e-11
1.66135e-11
7.85572e-12
0
0
0
0
0
0
0
0
0
0
0
0
0
0
0
0
0
0
0
0
0
0
0
0
0
0
0
0.00350706
0.011195
0.0175924
0.0199192
0.0179688
0.0116808
0.00374533
1.86729e-05
4.68112e-08
7.8205e-11
2.40357e-13
5.21005e-13
1.82568e-12
6.14952e-12
1.99075e-11
6.19372e-11
1.85203e-10
5.32243e-10
1.47007e-09
3.90245e-09
9.9565e-09
2.44147e-08
5.75404e-08
1.30611e-07
2.85794e-07
6.01599e-07
1.21714e-06
2.36676e-06
4.42334e-06
7.9457e-06
1.37183e-05
2.27644e-05
3.63082e-05
5.566e-05
8.20116e-05
0.000116145
0.000158098
0.000206845
0.000260114
0.000314399
0.000365258
0.000407866
0.000437762
0.000451606
0.0004478
0.000426787
0.000390968
0.000344249
0.000291345
0.000236998
0.000185304
0.00013926
0.000100593
6.98409e-05
4.66071e-05
2.98946e-05
1.84303e-05
1.09211e-05
6.22012e-06
3.40506e-06
1.79161e-06
9.06058e-07
4.40411e-07
2.05755e-07
9.23912e-08
3.98747e-08
1.65405e-08
6.59454e-09
2.52698e-09
9.30682e-10
3.29442e-10
1.12082e-10
3.60564e-11
1.64683e-11
0
0
0
0
0
0
0
0
0
0
0
0
0
0
0
0
0
0
0
0
0
0
0
0
0
0.00736953
0.0232049
0.042784
0.0638111
0.0790078
0.084665
0.0804193
0.0662764
0.0456248
0.0255684
0.008444
0.000124412
9.30882e-07
4.65216e-09
2.13007e-11
1.32646e-11
4.27797e-11
1.33116e-10
3.98095e-10
1.14421e-09
3.16072e-09
8.39144e-09
2.1412e-08
5.2511e-08
1.23771e-07
2.80913e-07
6.14399e-07
1.29261e-06
2.61376e-06
5.07979e-06
9.48875e-06
1.70356e-05
2.93965e-05
4.87555e-05
7.77219e-05
0.000119085
0.000175375
0.000248241
0.000337738
0.000441659
0.000555131
0.000670667
0.000778794
0.000869248
0.000932548
0.000961624
0.000953118
0.000908022
0.000831486
0.00073185
0.000619153
0.000503482
0.00039353
0.000295653
0.000213499
0.000148189
9.88658e-05
6.33991e-05
3.90776e-05
2.31515e-05
1.31837e-05
7.21606e-06
3.79636e-06
1.91973e-06
9.33069e-07
4.35904e-07
1.95735e-07
8.44786e-08
3.50449e-08