# vtk DataFile Version 2.0
Structured output generated by Nextsim
ASCII
DATASET STRUCTURED_POINTS
DIMENSIONS 3 3 1
ORIGIN 0 0 0
SPACING 0.5 0.5 0.5
POINT_DATA 9
SCALARS interpolate DOUBLE 1
LOOKUP_TABLE default
1.30048e-08
3.3392e-07
6.54836e-07
6.58863e-09
4.29659e-06
8.58658e-06
1.7247e-10
8.25925e-06
1.65183e-05
CELL_DATA 4
SCALARS average DOUBLE 1
LOOKUP_TABLE default
1.30048e-08
6.54836e-07
1.7247e-10
1.65183e-05
